# vtk DataFile Version 2.0
sampleSurface
ASCII
DATASET POLYDATA
POINTS 28504 double
-0.0506574 3.25261e-19 0
-0.062995 -2.1684e-19 0.00286487
-0.0639362 -2.1684e-19 0
-0.0646056 0 0.00195427
0.0718605 0 0
0.0722397 0 0.000129588
0.0723242 0 8.8702e-05
0.0723674 0 0
-0.076776 0 0.00490487
-0.078839 0 0
-0.0819432 0 0.00117323
-0.0837712 0 0
-0.085993 2.1684e-19 0
-0.0861209 -4.33681e-19 0.00148642
-0.0866036 0 0.000171251
-0.087847 -1.0842e-19 0.0116384
-0.0881965 0 0.0112786
-0.0900038 0 0.0123483
-0.090643 -3.25261e-19 0.0118454
-0.0906976 0 0.012618
-0.0909317 -1.0842e-19 0.0126548
0.0920871 0 0.00529696
0.0944643 -4.33681e-19 0.00387292
-0.0963608 4.33681e-19 0.0080336
-0.0983472 4.33681e-19 0.00089309
0.000489984 0 0.0989926
0.000298106 0 0.0989974
9.98871e-05 0 0.0990149
0.000485974 6.23416e-19 0.0991407
9.43293e-05 3.52366e-19 0.0991717
0.0156258 5.42101e-20 0.0985799
0.0159862 0 0.0985709
0.0163227 0 0.0985881
0.0156486 2.71051e-19 0.0988618
0.0163169 0 0.0988454
0.100273 8.47033e-22 0
0.100527 0 0.000376117
-0.0996924 -4.33681e-19 0.0164862
-0.0153342 5.42101e-20 0.0999685
-0.0157017 0 0.100002
-0.0153491 -5.96311e-19 0.100255
-0.0160629 -5.42101e-20 0.100255
-0.0159354 5.42101e-20 0.100286
0.0223804 0 0.099047
0.101881 8.47033e-22 0
0.101881 8.47033e-22 0.000192208
0.00827793 8.67362e-19 0.102722
-0.00796103 1.73472e-18 0.103582
0.0306339 0 0.0993579
0.0310997 1.0842e-19 0.0993793
-0.104275 -1.0842e-19 0
0.0306546 0 0.0997274
0.0318162 1.0842e-19 0.0994922
0.0315991 -7.58942e-19 0.099709
-0.104638 1.0842e-19 8.05868e-05
-0.105286 0 0
0.0238304 -1.73472e-18 0.102593
-0.105295 0 0.00275104
-0.104379 0 0.0178795
-0.106012 0 0
-0.104494 0 0.0179005
-0.106059 5.42101e-19 0.000135996
-0.104685 0 0.0179984
-0.105106 0 0.0181935
-0.105158 0 0.0181645
0.106335 0 0.00903021
-0.105483 1.4456e-20 0.0163085
0.106366 -1.35525e-20 0.00899459
0.10656 1.35525e-20 0.00909066
0.106652 0 0.00904642
0.106666 0 0.00912853
0.106703 0 0.00913178
0.0389247 0 0.101918
0.00012995 -3.95282e-21 0.110474
0.0163414 1.31761e-21 0.110172
-0.0191416 0 0.109734
-0.0198114 0 0.111366
-0.0196586 1.35525e-20 0.111396
-0.0197683 0 0.111404
-0.0198283 0 0.11142
-0.0197388 -1.35525e-20 0.111445
-0.0196539 0 0.111508
-0.0197831 0 0.111488
-0.0198447 0 0.111498
0.113578 0 0.00666074
0.0322092 0 0.109262
0.0511405 0 0.102094
0.0507775 -4.33681e-19 0.102531
-0.114165 4.33681e-19 0.00989877
-0.114708 0 0.0016754
0.114835 -4.33681e-19 0.000849152
0.0527008 -2.1684e-19 0.102434
0.0539343 0 0.102711
0.0510091 6.50521e-19 0.104226
0.0542576 1.0842e-19 0.1029
0.00866346 8.67362e-19 0.116531
-0.00813442 0 0.116649
0.0533187 3.25261e-19 0.104414
0.117703 -4.33681e-19 0.0134268
0.0243545 8.67362e-19 0.116163
-0.116704 0 0.0232834
-0.119064 0 0.0193726
0.0610898 -8.67362e-19 0.104043
0.0416551 8.67362e-19 0.113803
0.121295 0 0
0.121321 0 6.14248e-06
0.12137 6.77626e-21 0
0.121373 2.25875e-21 0.00252027
0.121429 0 0
-0.122507 0 0
-0.122533 6.50521e-19 7.07844e-05
-0.122882 0 0
-0.122883 0 0.00398503
0.064079 0 0.105101
0.12225 0 0.0146332
0.122283 0 0.0146366
0.122337 0 0.0146642
-0.123218 0 0
-0.123225 0 8.56715e-05
0.122422 0 0.0146785
0.064445 1.0842e-19 0.105292
0.123128 -4.51751e-21 0.0125447
0.0651888 0 0.105352
0.00149266 0 0.124291
0.0663232 -1.0842e-19 0.105687
0.0663364 -1.0842e-19 0.105881
-0.0199799 -1.35525e-20 0.123498
-0.0197045 5.96311e-19 0.123562
-0.0198916 0 0.123555
-0.0198223 0 0.123652
-0.0200161 1.35525e-20 0.123621
-0.0198901 0 0.123736
-0.0196768 2.43945e-19 0.123771
0.0166349 0 0.124281
-0.0199415 1.35525e-20 0.123815
0.064818 -3.61401e-20 0.107444
-0.12525 -6.77626e-21 0.0142145
0.0573201 8.67362e-19 0.114086
0.0323877 -2.71051e-20 0.123612
-0.125881 6.77626e-21 0.0277784
-0.125952 0 0.0278224
-0.126005 6.77626e-21 0.0278346
0.072535 -4.33681e-19 0.107441
-0.127356 -6.77626e-21 0.0249919
0.130261 4.33681e-19 0.00908994
0.129659 0 0.0169822
0.130817 4.33681e-19 0.00162317
-0.131264 0 0.00211156
0.0484574 -5.42101e-20 0.122385
-0.00760337 -4.33681e-19 0.131724
0.00919562 8.67362e-19 0.13163
-0.132124 -4.33681e-19 0.0100559
0.0244946 0 0.131479
0.0778716 0 0.109298
0.0779326 3.25261e-19 0.109494
-0.133149 8.67362e-19 0.0222073
0.0788766 -1.0842e-19 0.109597
-0.132267 4.33681e-19 0.0303529
0.0801537 0 0.110089
0.0801098 -4.33681e-19 0.110287
-0.0147993 0 0.135518
0.071423 4.33681e-19 0.116289
0.135315 0 0.0200291
0.135373 0 0.020051
0.0402991 1.73472e-18 0.130822
0.135459 6.77626e-21 0.0200798
0.0780214 0 0.11258
-0.0141346 0 0.13704
-0.0141608 -1.69407e-21 0.137038
-0.0141314 0 0.13707
-0.0127443 1.69407e-21 0.137217
0.136828 1.807e-21 0.016803
0.138728 -6.77626e-21 8.05679e-06
0.138767 -6.77626e-21 0
0.138808 0 1.00997e-05
0.138767 -3.38813e-21 0.00387315
0.0639079 -2.71051e-20 0.123344
0.00285256 0 0.138951
-0.139189 0 0
-0.139193 -2.71051e-20 4.19365e-05
-0.139353 0 0
-0.139356 -2.71051e-20 0.00449669
-0.139508 0 0
-0.139509 -2.71051e-20 4.45033e-05
-0.0736461 0 0.1185
-0.0736765 3.38813e-21 0.118505
-0.0736512 -2.71051e-19 0.11856
-0.0737242 3.38813e-21 0.118532
0.0170377 9.03502e-21 0.139454
-0.140488 -2.25875e-21 0.0169861
-0.137457 0 0.0340342
-0.137476 0 0.0340531
-0.137521 6.77626e-21 0.0340709
0.0560931 0 0.130714
-0.0630244 0 0.127609
-0.0630736 3.38813e-21 0.127587
-0.0630949 3.38813e-21 0.127604
-0.0630162 3.38813e-21 0.127654
-0.0630607 3.38813e-21 0.127642
-0.0631099 -5.6243e-19 0.127639
-0.0767264 -3.04932e-20 0.120268
-0.139458 -3.16226e-21 0.0306312
0.0323077 9.03502e-21 0.139267
-0.074725 3.38813e-21 0.122842
0.0895517 -8.67362e-19 0.113884
0.0855638 -8.67362e-19 0.118219
0.0481294 0 0.138624
0.14715 -4.33681e-19 0.00208459
0.146837 -4.33681e-19 0.0106817
-0.147274 4.33681e-19 0.0022809
-0.00627729 -4.33681e-19 0.147562
0.0789817 0 0.124875
-0.147614 0 0.0109443
-0.0700821 0 0.131069
0.00838968 -4.33681e-19 0.148422
0.147159 -1.73472e-18 0.0247926
0.0244717 0 0.147381
-0.147799 1.73472e-18 0.0243967
0.0717028 0 0.131591
0.151094 1.69407e-21 0
0.151094 -1.69407e-21 0.00430549
-0.057233 6.77626e-21 0.140466
-0.0572776 0 0.140507
-0.0572257 -6.77626e-21 0.140553
-0.0573568 -6.77626e-21 0.140503
-0.057305 0 0.140554
-0.0572765 0 0.140585
-0.0573563 7.65718e-19 0.140588
-0.0571969 6.77626e-21 0.14067
0.150513 0 0.0207855
0.0400398 -1.73472e-18 0.146987
0.0639055 -2.71051e-20 0.139001
-0.148229 -1.73472e-18 0.0394773
-0.0629095 -1.01644e-20 0.140043
0.0993584 0 0.118252
0.0993652 -5.42101e-19 0.118304
-0.0850603 4.33681e-19 0.129269
0.0996556 0 0.11839
0.0998498 2.71051e-20 0.118487
0.0998096 0 0.118542
-0.155096 0 0
-0.155097 0 2.49427e-05
0.155125 -1.69407e-21 3.59083e-06
-0.155183 0 0
0.155125 6.45439e-19 0.00444521
-0.155183 0 0.00465495
-0.155267 0 0
-0.155268 0 2.53063e-05
-0.00653262 0 0.155137
-0.00627198 0 0.155211
0.152881 0 0.0285262
-0.0064328 0 0.155391
-0.00627521 2.71051e-20 0.155524
-0.151629 0 0.0352588
-0.00633319 0 0.155633
0.155774 3.38813e-21 0.00813482
0.0977074 1.807e-20 0.121858
0.0170078 -4.51751e-21 0.155378
-0.155725 -6.77626e-21 0.0173219
0.0558552 8.67362e-19 0.146685
0.0881519 -4.33681e-19 0.131261
0.157555 -4.51751e-22 0.0159563
0.0321629 4.51751e-21 0.155317
0.155912 -1.69407e-21 0.0299959
-0.0548768 0 0.149218
0.156403 -8.47033e-22 0.0290841
-0.00451089 0 0.159143
-0.0785781 2.25875e-21 0.138603
-0.0552119 5.42101e-20 0.149932
-0.157017 -1.12938e-21 0.0302011
-0.0559665 -3.79471e-19 0.14991
0.157935 -1.50584e-21 0.0261526
-0.0554549 0 0.150228
-0.154087 0 0.0442871
-0.0553514 2.71051e-19 0.150814
-0.0560577 3.79471e-19 0.150709
-0.00370518 -2.71051e-20 0.160771
0.104857 4.33681e-19 0.121949
-0.00355413 6.77626e-20 0.160801
-0.00365117 1.35525e-20 0.1609
0.0790895 0 0.140173
-0.00370256 0 0.160946
-0.00355014 0 0.160964
-0.00374372 0 0.160985
0.0478442 -1.35525e-20 0.154893
-0.0701737 0 0.146593
-0.162958 0 0.00233059
-0.156524 0 0.0457885
-0.156532 0 0.0457937
0.163095 4.33681e-19 0.002272
-0.163155 0 0.0111415
-0.0539692 0 0.154439
0.0716371 0 0.147154
0.16372 -8.67362e-19 0.0109135
-0.0538443 2.71051e-20 0.155004
-0.15858 2.11758e-22 0.0426538
-0.0535845 5.42101e-20 0.155301
-0.0537542 2.71051e-20 0.155433
0.00797658 -4.33681e-19 0.164313
-0.0540687 -2.71051e-20 0.155367
-0.0534733 0 0.155608
-0.0539929 -2.71051e-20 0.155603
-0.0537653 2.71051e-20 0.155834
-0.053394 0 0.156002
-0.0541524 -2.98156e-19 0.15585
0.0244705 -4.33681e-19 0.163327
0.16221 8.67362e-19 0.0319512
-0.098625 0 0.132795
-0.0985096 0 0.132934
-0.163834 -4.33681e-19 0.0243829
0.164041 -8.67362e-19 0.0234822
-0.0989761 0 0.133011
-0.0986386 0 0.133385
-0.0991553 -2.71051e-20 0.133124
0.110561 0 0.123997
-0.0990824 -4.60786e-19 0.133394
0.110523 -5.42101e-20 0.1241
0.110851 0 0.124143
0.111287 0 0.124399
0.111236 1.0842e-19 0.124461
0.0637087 9.03502e-21 0.154625
0.102865 4.33681e-19 0.132674
0.10895 0 0.127735
0.0398963 8.67362e-19 0.163197
-0.164308 -8.67362e-19 0.0382154
0.0946646 -5.42101e-20 0.140304
-0.162327 -4.33681e-19 0.0480596
-0.0884744 4.33681e-19 0.144452
-9.71046e-06 4.23516e-22 0.169664
0.000166543 0 0.170088
0.000408699 0 0.170103
-0.17072 0 0
-0.170773 -6.77626e-21 0
-0.170825 -6.77626e-21 1.56697e-05
-0.170773 -4.51751e-21 0.00468902
0.166965 0 0.0361826
0.166999 -6.77626e-21 0.0362002
0.170934 -6.77626e-21 1.58986e-05
0.167055 0 0.0362229
0.170989 6.77626e-21 0
0.171045 0 0
0.17099 0 0.004644
0.0872301 0 0.147557
0.017467 -4.51751e-21 0.170707
0.000835171 0 0.17191
-0.171009 0 0.0176594
0.0556436 -8.67362e-19 0.162903
0.169303 0 0.0322672
0.169333 5.29396e-23 0.0321454
0.169317 5.29396e-23 0.0322427
0.169429 -2.11758e-21 0.0322323
0.171598 -2.25875e-21 0.0176964
-0.0795497 -1.35525e-20 0.15453
0.170942 2.64698e-23 0.0332669
0.0321247 -9.03502e-21 0.171253
-0.0577178 0 0.164416
-0.166326 0 0.0526363
-0.166351 0 0.0526567
-0.171769 1.05879e-22 0.0315344
0.0793992 -6.77626e-21 0.155604
-0.169068 1.69407e-21 0.0488654
-0.169064 0 0.0488981
0.120034 0 0.129853
-0.0713441 8.67362e-19 0.162074
0.11611 8.67362e-19 0.134549
0.047662 -1.35525e-20 0.17122
0.0714249 8.67362e-19 0.162922
[...]
POINT_DATA 28504
FIELD attributes 1
U 3 28504 float
12.7768 0 0
6.88572 0 0
16.0443 0 0
13.3894 0.613599 -1.61394
11.1014 0 0
10.7467 0 0
11.0517 -0.0943385 0.0822212
11.2536 0 0
16.3904 -1.26547 -3.92376
20 0 0
19.1234 0.368369 -0.968917
20 0 0
20 0 0
19.3592 0.366917 -0.446127
19.4784 0.298168 -0.0467008
0 0 0
2.1736 0.200455 -0.527255
0 0 0
1.62317 0.193009 -0.234677
0 0 0
1.31296 0.208735 -0.473953
4.57139 0 0
13.4924 -0.566835 3.83636
16.6646 -0.687694 -2.35142
17.4224 -0.707256 -0.243493
0 0 0
0 0 0
0 0 0
0.0539743 0.00848554 -0.00478228
0.0647836 0.0163796 -0.0157632
0 0 0
0 0 0
0 0 0
0.103082 0.016206 -0.00913337
0.107305 -0.000671827 0.009185
19.9975 -0.00189143 0.00121235
19.1714 0 0
14.196 -0.694081 -5.01071
0 0 0
0 0 0
0.118158 0.0298747 -0.0287505
0 0 0
0.144979 0.0383071 -0.0366759
0 0 0
20 0 0
19.4703 -0.049105 0.154801
1.85621 -0.4084 -0.237806
1.6854 -0.0932593 -0.364826
0 0 0
0 0 0
20 0 0
0.134122 -0.100836 -0.0118147
0 0 0
0.144389 -0.183297 0.00142892
19.7545 0.140311 -0.0219763
20 0 0
2.39567 -0.878032 0.00400965
17.0387 -0.663877 -1.41231
0 0 0
20 0 0
0.577363 0.0917897 -0.208417
19.7695 0.121264 -0.0329664
0 0 0
0 0 0
0.568242 0.0946625 -0.234527
0 0 0
15.5772 -0.677722 -4.28607
0.198517 0.0497313 0.0631885
0 0 0
0.153775 0.0378524 0.0421681
0 0 0
0.152199 0.0301106 0.0373153
2.07468 -1.94081 0.187903
2.41362 -0.442217 0.272273
3.02428 -0.753253 0.382762
0 0 0
0 0 0
0.00654637 -0.00714512 -0.00082586
0.0156292 0.00018329 0.00510944
0 0 0
0.0245288 -0.000492713 -0.0031865
0.0400839 -0.00341656 0.00408533
0.0405608 -0.00150885 0.00380687
0 0 0
12.9536 -0.637259 3.19417
3.11558 -1.30786 0.465527
0 0 0
0.285277 -0.362151 0.0028232
16.6323 -0.583825 -3.12296
17.2784 -0.603903 -0.41392
13.9948 -0.554523 1.12513
0 0 0
0 0 0
0.717754 -0.242493 0.0592999
0.338791 -0.679519 0.198417
3.38292 -0.701434 0.847091
3.09393 -0.529282 0.889873
0.944501 -0.374767 0.0612941
12.8104 -0.538197 3.06343
4.14593 -0.913238 0.844258
15.0494 -0.623881 -6.0716
16.0011 -0.663733 -4.74298
1.57495 -3.42399 0.74465
3.80197 -1.46346 0.812527
20 0 0
19.9493 0.0239626 0.00795844
20 0 0
13.0732 -0.617967 2.02293
19.9589 0.0164962 0.00383758
20 0 0
19.88 0.0631168 -0.0171587
20 0 0
16.995 -0.555553 -1.42471
0 0 0
0 0 0
0.12627 0.0249808 0.0309581
0 0 0
20 0 0
19.8838 0.0503522 -0.0188031
0.0948796 0.00978887 0.0297474
0.315976 -0.63376 0.185055
12.2893 -0.575204 3.28486
0 0 0
4.0822 -1.10837 0.304327
0 0 0
0.485524 -0.669732 0.192836
0 0 0
0.0579977 -0.00494344 0.0059111
0.0587212 -0.00218441 0.00551133
0.0545153 -0.00681556 -0.011696
0 0 0
0.0941081 -0.0314187 -0.0338873
0.0988562 -0.0320167 -0.025204
4.92068 -1.4109 0.284211
0 0 0
3.48984 -3.48007 0.71935
16.3624 -0.593712 -3.52542
4.73159 -2.37214 0.610438
5.64722 -1.76125 0.240087
0.0931927 0.0155248 -0.0384628
0 0 0
0.0791857 0.0138696 -0.0371515
2.9182 -4.60615 0.92497
15.4054 -0.606584 -5.44214
11.7662 -0.835295 3.2929
11.7211 -0.357343 3.586
13.2408 -0.480907 0.763948
17.2347 -0.489521 -0.467392
6.18505 -2.30638 0.227161
4.43377 -1.35417 -0.265368
5.33923 -1.80197 -0.214618
16.7441 -0.537404 -2.00239
6.73622 -2.17568 -0.295333
0 0 0
0.451936 -0.623401 0.179496
16.0655 -0.557912 -4.31204
0 0 0
14.5132 -0.557941 -6.6853
0 0 0
0.436072 -0.45911 0.235276
0 0 0
6.0558 -3.42951 0.572999
0.0750137 0.00773928 0.0235189
0 0 0
7.6359 -2.4447 -0.319544
0.0566609 0.00254038 0.0237928
4.87618 -4.32443 1.07102
0.00358766 -0.000857247 0.00230749
0.0012318 0.000248735 -4.94646e-05
0.00313118 0.00118659 0.00264788
0.463878 -0.140401 0.0116491
12.1109 -0.550765 3.73215
19.9732 0.0107584 0.00250276
20 0 0
19.9734 0.0100744 0.00207259
12.9207 -0.608567 1.78683
7.28483 -3.11374 0.267083
5.69361 -1.73018 0.114062
20 0 0
19.9431 0.0246476 -0.00920419
20 0 0
16.9165 -0.482072 -1.14675
20 0 0
19.9414 0.0200752 -0.00690378
0.00482866 -0.000277652 -0.000369579
0 0 0
0.0135762 -0.00740583 -0.00771227
0.0116294 -0.00269561 -0.0072005
6.75924 -2.33938 -0.0437961
16.3137 -0.521315 -3.1977
0.0460488 0.00806557 -0.0216047
0 0 0
0.0433062 0.00786988 -0.0225742
8.60103 -2.98132 -0.19695
0 0 0
0.00250212 0.000804678 -0.000811447
0.00577555 -0.000143024 -0.00127709
0 0 0
0.00566073 -0.00123412 -0.00524863
0.0110057 -0.00600362 -0.00625204
0 0 0
15.1251 -0.546376 -5.76362
7.94731 -2.79328 -0.170514
0.671483 -0.307696 -0.359824
3.73795 -5.1886 1.50167
6.96977 -4.3748 1.40716
8.90769 -3.17976 -0.158327
13.5795 -0.425807 0.608214
13.0072 -0.729129 2.72749
17.0685 -0.441877 -0.35406
6.15016 -1.41577 0.580095
8.22459 -3.94851 0.716008
16.56 -0.45428 -1.91801
3.11783 -2.08681 -1.60927
6.8148 -2.30998 0.333335
10.9457 -0.327844 4.3111
8.13772 -3.06076 0.00890148
15.8953 -0.529199 -4.53678
9.90783 -3.69757 0.0645124
20 0 0
13.4425 -0.561584 1.5636
0 0 0
0.00910957 -0.00198601 -0.00844639
0 0 0
0.017711 -0.00966138 -0.0100612
0.0155654 -0.00317514 -0.00756802
0.019427 -0.0128681 -0.0130507
0.021552 -0.010679 -0.0119599
0 0 0
13.4087 -0.593439 5.12521
9.27201 -3.48043 -0.0853081
9.78688 -3.63005 0.0394986
14.1616 -0.549453 -7.26085
0.822816 -0.377042 -0.440918
0 0 0
0.0998003 -0.105073 0.0538457
2.60767 -0.828905 -1.47384
0 0 0
0 0 0
0.19749 -0.167021 0.0757468
20 0 0
19.9671 0.0112516 -0.00386936
19.9947 -0.00334637 0.000598716
20 0 0
13.6128 -0.545835 1.49088
16.8013 -0.423476 -0.994496
20 0 0
19.9665 0.00949106 -0.00326895
0 0 0
0.0536375 0.0203264 0.0453586
0 0 0
0 0 0
0.0317097 0.0172553 0.0178221
15.0173 -0.530595 -5.99726
0 0 0
13.5257 -0.576054 2.26941
7.11329 -5.13955 1.43742
7.61395 -3.3086 0.19004
16.3104 -0.457399 -2.73091
10.1339 -3.82397 -0.0228439
9.93526 -4.25351 0.784378
13.3759 -0.640345 3.89671
8.5398 -3.69203 0.135967
0.0103965 -0.000199922 0.00478427
0 0 0
2.88461 -0.0910478 1.26683
0 0 0
3.10643 -1.42798 -1.66155
0.181653 -0.120324 -0.122031
15.5558 -0.496095 -4.74105
0.200495 -0.0993452 -0.111261
12.1229 -0.376394 5.3247
0.175049 -0.0770167 -0.0817731
0 0 0
0.268876 -0.254389 -0.112405
0.297676 -0.184948 -0.171306
0.111813 -0.041421 -0.0087949
5.61319 -6.39271 1.83205
0.0975091 -0.0377891 -0.00938852
0.0542556 -0.0234118 -0.00876323
10.2274 -4.02685 0.465614
0.105384 -0.0641213 -0.0109122
0.104256 -0.0610428 -0.0105917
0 0 0
9.15741 -3.83577 0.204435
3.72209 -2.12154 -1.8599
16.9746 -0.388969 -0.300216
0.00568646 -0.00145529 -0.00296904
0.00652369 -0.00165743 -0.00357426
13.9047 -0.4059 0.55488
16.5435 -0.409895 -1.5781
0 0 0
10.4897 -4.01701 0.314903
13.9407 -0.657005 2.3442
0 0 0
13.7121 -0.490884 -6.3
0 0 0
0.0451234 0.0342174 -0.0512381
7.39112 -3.81879 0.151066
0.103199 -0.0683576 -0.0693274
0 0 0
0.0949338 -0.0333049 -0.0387628
0.0825395 -0.0367961 0.00301972
0 0 0
0.153179 -0.144926 -0.0640374
8.13587 -4.10929 0.250085
11.154 0.00573516 6.14492
0 0 0
0.0489739 -0.0249877 -0.0217739
16.2188 -0.438644 -2.99625
12.9188 -0.61589 5.41533
0 0 0
0.0602261 -0.0211507 -0.0284039
0 0 0
0 0 0
0.0356264 -0.00919469 -0.026408
0.316452 -0.26763 0.121375
0 0 0
0 0 0
0.313167 -0.158671 0.169851
9.35925 -3.83703 0.431716
10.3831 -4.6214 1.42544
8.27223 -5.5285 2.34816
8.65447 -4.12363 0.359345
15.1241 -0.485548 -5.39186
10.3005 -4.31577 1.1165
13.4713 -0.51148 -7.80189
2.94959 -0.673442 -1.68103
0 0 0
0.00126461 -0.000196958 0.000471599
0.0925406 -0.0425614 0.00965011
19.9855 0.00410859 -0.00141509
20 0 0
19.9837 0.00390309 -0.00128498
16.7456 -0.376647 -0.8316
0.0468162 0.00167437 0.0245493
0 0 0
19.9712 -0.0176225 0.00316616
0.044776 0.0034244 0.0271575
20 0 0
19.9753 -0.014029 0.00253208
14.1332 -0.518768 1.30951
10.5319 -4.15786 0.714511
6.77075 -3.13958 0.671432
0 0 0
16.3388 -0.402614 -2.1433
8.58658 -3.92793 0.568644
12.1877 -0.333829 6.03983
12.2743 -0.337892 6.06165
12.2638 -0.335868 6.07754
12.2726 -0.337375 6.07608
13.836 -0.644738 3.70185
3.98057 -1.971 -2.19394
12.2298 -0.327749 6.19797
7.1959 -3.2224 0.780316
5.53104 -4.98418 -2.13963
0.022342 -0.00564022 -0.0127411
0.0281875 -0.00652524 -0.0176522
15.6017 -0.44703 -4.1386
9.25535 -3.76316 0.796875
14.0518 -0.499841 -6.8881
14.0499 -0.501274 -6.89089
7.456 -5.85863 3.24754
5.16315 -3.351 -2.76553
10.2746 -5.0496 3.37047
7.34474 -3.12837 0.912135
8.17825 -3.5783 0.881647
16.9154 -0.346586 -0.246048
2.30583 -0.440008 -1.76822
14.2115 -0.404132 0.50166
0 0 0
10.3249 -4.58175 2.40906
0 0 0
0.0142396 -0.00367504 -0.0105551
16.4918 -0.363431 -1.35725
0 0 0
0.014014 -0.00364822 -0.0111529
14.5061 -0.638775 2.0322
0 0 0
0.12654 -0.0564115 0.00462947
10.3395 -4.24062 1.55783
0.234686 -0.222042 -0.0981121
0 0 0
5.65724 -2.24847 1.09906
0.139406 -0.0894618 -0.0356013
0.129566 -0.0521166 0.14632
16.0923 -0.39787 -2.65585
0 0 0
14.0113 -0.675319 4.93465
0.209461 -0.2404 -0.0672638
3.23185 -1.02208 -2.05719
10.7105 -0.0111427 6.78017
5.79527 -2.31429 1.22152
9.09853 -3.70753 1.33216
7.1034 -2.92161 1.06405
15.0061 -0.46905 -5.51677
6.1108 -2.28492 1.32437
0 0 0
4.10416 -1.66227 -2.49126
5.10076 -4.55622 -2.25886
7.87317 -3.31614 1.26324
12.9697 -0.508996 7.24517
13.0807 -0.526132 -8.34286
19.9899 0.00241419 -0.000794804
20 0 0
19.9887 0.0023808 -0.000694094
16.7086 -0.336038 -0.701134
20 0 0
19.9476 -0.029697 0.00535998
20 0 0
14.5657 -0.502155 1.14719
20 0 0
19.9511 -0.0263607 0.00488013
0 0 0
0.596872 -0.302416 0.323723
16.3199 -0.359264 -1.79107
6.04374 -2.18806 1.39553
14.5584 -0.643917 3.24903
0 0 0
6.68359 -2.65362 1.24681
13.8429 -0.509905 -6.95793
15.8355 -0.391402 -3.1075
9.44254 -4.88883 4.27471
15.7112 -0.399733 -3.44518
0 0 0
0.83949 -0.299455 0.616588
4.67619 -3.5261 -2.75379
2.586 -0.418063 -2.12446
0 0 0
0.0400966 -0.0224219 0.00297655
0 0 0
10.3001 -4.4086 3.32814
0.0117811 -0.00558111 0.00431082
0 0 0
4.75121 -5.12161 -1.3441
2.55037 -0.554781 -1.97982
4.8487 -1.00045 1.77557
13.7696 -0.599316 5.82612
8.95918 -3.67976 2.31259
0.039892 0.00305088 0.0241953
0 0 0
0.038626 0.0088499 0.0313347
3.06454 -0.732995 -2.17486
5.6007 -1.98946 1.41526
7.64532 -3.11928 1.79561
14.6595 -0.448536 -5.44833
11.8677 -0.241145 7.47996
5.06981 -0.962943 1.79379
0.242704 -0.135719 0.018017
0.192269 -0.0996885 0.0191221
4.9632 -4.80422 -2.6905
0.0680245 -0.0316443 0.00347137
16.8745 -0.309682 -0.19488
0.0718324 -0.0340294 0.0262841
0.0868155 -0.0098844 0.0495303
0 0 0
16.4972 -0.326974 -1.14783
14.5974 -0.399545 0.462466
0.000754032 -0.000558621 0.000422527
0.0383359 -0.00887453 -0.0240076
0 0 0
14.9913 -0.59764 1.78099
0.0386664 -0.0120208 -0.0274396
3.76866 -2.21701 -2.65922
16.1949 -0.349954 -2.01432
6.37065 -2.41993 1.51193
13.1906 -0.480621 -7.3739
14.6997 -0.670529 4.35454
3.49959 0.307958 2.31738
5.02427 -0.978615 1.75024
15.5348 -0.382463 -3.62946
5.04916 -1.70629 1.43967
9.07839 -4.94296 5.90189
4.4949 -4.20835 -3.05208
13.3853 -0.556062 6.78769
3.93713 0.354307 2.27106
10.063 -4.21302 5.38173
3.4248 -4.04944 -1.22512
0 0 0
0.121543 -0.0152316 -0.101001
9.17306 -3.6755 3.98553
0 0 0
0.119495 -0.0264237 -0.106302
0 0 0
0.0863572 -0.025874 -0.0903698
7.68397 -3.01432 2.64077
2.4253 -0.639938 -2.05794
19.9925 0.00157913 -0.000460375
20 0 0
19.9917 0.00170181 -0.000461719
16.7121 -0.302329 -0.605358
20 0 0
19.9412 -0.0317297 0.0058741
0 0 0
14.2679 -0.431934 -5.67375
20 0 0
0.0634549 -0.0300607 0.0232187
14.9898 -0.485144 1.02827
0.0767136 -0.00873425 0.0437669
20 0 0
19.946 -0.028412 0.00522976
0 0 0
0.0311008 -0.00635495 0.00991166
0.0130952 -0.0199132 0.0113526
16.3832 -0.321785 -1.43543
16.383 -0.321993 -1.43607
0.0781492 0.0407161 0.0639164
0 0 0
9.8713 0.370564 8.22684
4.732 -0.915382 1.66295
4.22517 0.220028 2.17158
15.0446 -0.628582 2.93671
16.0794 -0.338486 -2.15604
6.30018 -2.24214 1.94504
2.90207 -1.24447 -2.45484
3.74019 -4.67934 -2.39466
1.43765 -1.6814 0.767693
15.9089 -0.347808 -2.56033
0 0 0
14.2935 -0.623583 5.33135
4.33075 1.33647 2.23355
12.0124 -0.411502 8.63023
11.8195 -0.456767 -8.53785
3.4075 -2.22969 -2.91955
4.93744 -1.56355 1.54547
4.23936 0.0192954 2.01329
8.26314e-05 0.000123891 -0.000158374
8.9947e-05 7.29097e-05 -2.14031e-05
0.00815204 -0.00621345 0.0012062
0 0 0
15.1045 -0.383409 -4.10071
2.49037 -4.37843 -1.42635
1.30137 -0.464211 0.955827
0 0 0
12.8479 -0.483761 -7.41797
4.6778 1.3434 2.26931
3.43513 -4.08557 -2.74043
12.7796 -0.485542 7.61235
4.69248 -0.81668 1.65541
16.88 -0.278339 -0.177275
16.5449 -0.297529 -1.03309
15.0251 -0.389038 0.415843
0 0 0
9.00048 -3.64533 5.89355
15.3959 -0.582907 1.61758
8.72308 -3.08234 4.68677
16.2942 -0.314441 -1.55005
15.0822 -0.671871 4.05521
0 0 0
1.34287 -0.299397 1.17348
4.71878 2.28683 2.07606
1.78602 -0.66951 -1.85369
0 0 0
0.0457166 0.0104745 0.0370868
6.69428 -2.12133 2.96372
0 0 0
0.0600306 0.0138156 0.0551206
13.8631 -0.43197 -5.87123
4.73493 1.14454 2.24434
2.99732 -5.29607 -2.39242
4.04458 0.0179354 1.79419
15.594 -0.344707 -3.07807
1.25038 -0.954412 0.179791
10.8236 0.00894728 8.7465
4.9794 -1.29685 1.82374
2.12653 -0.838727 -2.15626
2.66835 -1.28113 -2.62138
13.9887 -0.596669 6.17462
5.15166 2.43838 2.2763
0.0506313 -0.0157405 -0.0359305
0 0 0
0.0513207 -0.0173012 -0.0401607
0.0153367 -0.0233218 0.0132959
0 0 0
0.0914712 0.047657 0.0748122
0 0 0
2.78083 -2.77434 -2.73222
0.0465594 0.0378442 0.113667
-0.00325849 0.0743529 0.0152899
4.504 -0.61875 1.687
0 0 0
0.0194093 0.0406875 0.000470089
0.0636859 -0.0528495 0.038088
0.0984756 0.14837 -0.0710119
0.0141236 0.0836587 -0.00319561
0 0 0
0 0 0
19.9971 0.000586693 -0.00016132
16.7336 -0.279102 -0.560696
12.1591 -0.460126 -7.64117
14.9628 -0.380444 -4.1438
-0.146314 2.65748 0.644058
20 0 0
19.9414 -0.0308273 0.00567435
1.9209 -3.35302 -0.951923
20 0 0
15.4244 -0.476373 0.916342
20 0 0
19.9471 -0.0280036 0.0048389
4.51259 0.930741 2.12472
11.7157 -0.391816 8.855
16.4143 -0.299514 -1.29402
15.4787 -0.623157 2.66979
9.76175 0.466119 9.09272
5.3704 2.3226 2.36603
0 0 0
2.74245 -4.42373 -2.7114
16.0021 -0.313063 -2.14441
4.0472 0.0411636 1.69662
14.8102 -0.641197 4.81504
0.199727 0.351919 -0.433601
5.57005 1.5966 2.27183
0 0 0
0.628451 1.02774 -0.435827
8.52687 -3.4099 6.81651
8.65466 -2.61735 6.53825
0.433755 0.74229 -0.601111
13.4029 -0.433863 -6.21201
7.45658 -1.99792 4.80096
0 0 0
1.17533 -0.326647 0.712108
15.4041 -0.340795 -3.23788
5.09106 1.98938 2.42604
5.51287 -1.13904 2.8321
1.95237 -0.880686 -2.4412
0 0 0
0.121207 0.0278947 0.111293
2.01326 -4.41759 -1.85762
0 0 0
0 0 0
0.106707 0.0241483 0.117302
4.28811 0.829334 1.95197
13.2182 -0.522347 7.15664
0 0 0
0.0412802 -0.0224284 -0.0420515
6.09268 1.94315 2.46412
0 0 0
0.0469437 -0.0336554 -0.0533521
0.0167907 -0.0124311 -0.0146686
0 0 0
4.62396 -0.292762 2.06183
10.6256 -0.0311348 9.22269
15.4794 -0.388342 0.355948
2.11347 -1.70701 -2.59809
15.8491 -0.573774 1.42797
10.7688 -0.469321 -8.59804
15.5896 -0.668537 3.56519
14.5044 -0.380545 -4.5099
4.04517 0.375603 1.69958
2.25093 -2.91574 -2.69612
0.985287 -3.31756 -0.643997
5.87616 0.356889 2.15349
4.68088 1.69497 2.27137
0.937622 1.75987 0.488771
6.40237 2.04085 2.55781
15.836 -0.301481 -2.39853
11.8848 -0.475157 -7.51786
14.5936 -0.633123 5.45973
3.79196 6.09499 -3.97446
1.89019 -3.94249 -2.23501
4.12332 0.918941 1.82038
1.17856 -0.262764 1.0299
0 0 0
6.5052 1.171 2.56837
7.7535 -1.87099 6.59258
12.5855 -0.477219 8.13326
0.542917 3.46661 -0.252431
1.48441 -0.566415 0.426606
15.2251 -0.337256 -3.32333
0 0 0
13.0984 -0.429375 -6.08193
6.94747 -1.13558 5.18825
0.0180475 -0.0129388 -0.0205113
6.29154 1.96185 2.58838
0 0 0
0.00641841 -0.00475191 -0.00560719
0.00750688 -0.00558585 -0.00839504
0.0208732 -0.0231275 -0.0289312
20 0 0
19.9465 -0.0282984 0.00488984
0.0168547 -0.0198875 -0.0253321
20 0 0
15.8584 -0.476909 0.774477
20 0 0
19.9514 -0.0267012 0.00398988
16.5672 -0.271981 -0.950503
1.30412 -4.6007 -1.65769
0.961287 -0.00987678 1.01889
0 0 0
0 0 0
9.04608 0.428359 9.96118
16.9083 -0.253177 -0.180748
15.8907 -0.632364 2.37582
4.38718 1.56149 2.05462
5.12915 -0.0208386 3.16573
0 0 0
0.0889997 -0.0738561 0.0532271
7.34337 1.80042 2.657
0 0 0
15.2737 -0.67057 4.34354
-0.0355558 -0.0461185 -0.0129425
16.0947 -0.281619 -1.87105
0 0 0
1.84589 -1.67177 -2.87009
3.96418 0.868412 1.91661
20 0 0
0.071801 -0.0242055 -0.0561876
0 0 0
0.0923822 -0.0376638 -0.0780776
14.3521 -0.376429 -4.47751
10.7317 -0.466928 9.97463
2.00769 1.43412 0.888636
0 0 0
15.6709 -0.301897 -2.55878
1.4114 -2.57823 -0.431919
0.154501 0.232782 -0.111412
0.310633 0.128411 -0.0163636
0 0 0
0.131456 0.122374 -0.06694
3.91881 1.27264 1.80396
11.241 -0.476819 -7.60388
1.59288 -2.89541 -2.43862
0.321348 0.260383 -0.160553
0.237481 0.325773 -0.161358
0 0 0
0 0 0
5.96561 1.90298 2.49996
0.897243 1.4673 -0.622232
13.9562 -0.588576 6.40699
7.7535 2.04578 2.78427
0.00290008 -0.00127824 -0.00467881
0.105587 -0.0876208 0.0631472
0.161877 0.00747067 0.102005
0.0479713 0.006459 0.00335201
3.22958 5.27531 -2.28046
-0.0422732 -0.0548314 -0.0153876
0 0 0
-0.0119468 -0.105193 0.0440034
1.26537 -3.83678 -1.87277
4.03339 1.70975 1.85192
15.9084 -0.393624 0.295603
5.62168 0.420427 2.57236
16.248 -0.582121 1.15829
14.9805 -0.334876 -3.49005
1.78462 -0.117967 0.718418
12.8014 -0.436683 -6.07088
0 0 0
12.0481 -0.498953 8.64356
15.8769 -0.709498 3.359
0 0 0
0.129843 0.0293842 0.142735
2.22011 2.856 0.0417281
7.60827 2.11097 2.87
0 0 0
16.7814 -0.244642 -0.487898
0 0 0
6.88083 -0.596258 6.75689
0.118738 0.0261438 0.159103
7.62411 -1.41834 7.57068
5.80114 0.177586 4.92245
16.0537 -0.269161 -1.92743
1.39577 -3.68977 -1.32321
1.69103 -1.2545 -2.79473
15.0269 -0.674364 5.01719
5.4894 1.99488 2.32205
6.7624 1.17033 2.89573
4.22827 1.24199 2.90507
9.80696 -0.15285 10.1973
9.72445 -0.516737 -8.42544
1.39917 -2.01989 -2.61048
3.62214 1.78439 2.07418
2.30028 1.24602 0.687558
13.991 -0.375383 -4.60014
5.69379 8.13644 -4.74253
15.5786 -0.298584 -2.56215
13.5137 -0.570515 7.15461
3.60649 -1.267 2.19728
19.9981 -0.000659261 -0.000102942
7.61385 1.63502 3.09789
7.17191 2.24036 2.80303
20 0 0
19.9541 -0.0251907 0.00376418
20 0 0
3.56535 2.16594 1.70596
16.6053 -0.47266 0.728892
1.03607 -3.06867 -2.34675
19.992 -0.0116528 0.000920615
11.0719 -0.49468 -7.40405
3.22196 3.95959 -0.804031
16.3789 -0.614956 2.0841
16.3118 -0.254014 -1.42329
15.7489 -0.668848 3.85086
4.80459 2.25591 2.11119
11.3899 -0.490168 9.28561
0 0 0
0.703652 0.570158 -0.351562
1.00535 -3.20114 -1.64167
0.518344 0.711057 -0.352192
14.7636 -0.329247 -3.59889
2.02536 -0.0847749 0.622771
4.90195 -0.102534 2.85457
0 0 0
0.342925 0.404925 -0.27743
0 0 0
2.97331 2.58202 0.320886
-0.0470675 -0.0610499 -0.0171327
0.836765 0.825003 -0.592361
12.5151 -0.433331 -5.9482
-0.0132948 -0.117062 0.0489686
0 0 0
15.9048 -0.274025 -2.09241
0.548877 0.980393 -0.494511
0 0 0
0 0 0
7.89175 1.94135 3.15446
0 0 0
0 0 0
8.38646 0.356073 11.056
14.554 -0.65695 5.69467
2.03291 3.0381 -1.38609
0.451072 -0.00463455 0.4781
0 0 0
6.26196 0.211355 6.41276
0 0 0
6.90904 0.869851 3.27207
0.012225 -0.0144247 -0.0183737
0 0 0
0.000921122 -0.00260681 -0.00191298
0.00766849 -0.0217021 -0.0159258
0 0 0
0.00606068 -0.0238122 -0.0143063
5.18652 1.18676 4.93266
0.339995 0.119854 0.373071
0 0 0
6.37667 2.46893 2.58662
4.73435 7.07022 -3.24301
3.65946 2.13363 2.9921
0 0 0
0.0995207 -0.0405741 -0.0841107
0 0 0
0 0 0
0.0965957 -0.0389079 -0.096997
2.43547 1.06443 0.803768
9.67308 -0.625469 10.6154
13.9555 -0.366391 -4.36857
15.3367 -0.296379 -2.79699
12.95 -0.591054 7.64541
1.04799 -2.02834 -2.43854
2.73452 2.85284 1.7903
3.62787 4.01705 -0.827357
8.12792 1.50436 3.46428
1.7701 -1.90226 0.17072
10.1767 -0.493849 -7.61141
7.72812 2.21916 3.07234
3.77645 2.77574 1.9156
15.4829 -0.709233 4.37442
0.683333 -2.81001 -2.06597
-0.0133839 -0.117847 0.0492966
0.0783601 -0.0179199 0.1012
0 0 0
0 0 0
-0.0330151 -0.102094 0.0043337
14.6239 -0.325281 -3.55768
0 0 0
11.0462 -0.604453 9.51746
3.22856 2.44135 0.190692
5.78941 10.9472 -5.4873
3.72282 -0.745916 2.33035
0.336239 -3.33624 -1.59567
0 0 0
0.115061 0.0253344 0.154177
5.21131 2.80455 2.26718
12.2344 -0.443388 -5.96112
0 0 0
0 0 0
0.11137 0.0266999 0.162417
14.1972 -0.686444 6.23146
8.6235 1.90798 3.48621
8.43544 -0.520422 -8.64923
5.75608 0.427825 2.95676
4.27462 5.72725 -2.26724
16.9585 -0.209048 -0.13885
8.96617 -0.259653 10.7542
16.6798 -0.219353 -0.733014
17.454 -0.51703 1.48074
0.805363 -2.3077 -0.979385
5.0165 1.64674 5.87978