# vtk DataFile Version 2.0
sampleSurface
ASCII
DATASET POLYDATA
POINTS 28504 double
-0.0506574 3.25261e-19 0
-0.062995 -2.1684e-19 0.00286487
-0.0639362 -2.1684e-19 0
-0.0646056 0 0.00195427
0.0718605 0 0
0.0722397 0 0.000129588
0.0723242 0 8.8702e-05
0.0723674 0 0
-0.076776 0 0.00490487
-0.078839 0 0
-0.0819432 0 0.00117323
-0.0837712 0 0
-0.085993 2.1684e-19 0
-0.0861209 -4.33681e-19 0.00148642
-0.0866036 0 0.000171251
-0.087847 -1.0842e-19 0.0116384
-0.0881965 0 0.0112786
-0.0900038 0 0.0123483
-0.090643 -3.25261e-19 0.0118454
-0.0906976 0 0.012618
-0.0909317 -1.0842e-19 0.0126548
0.0920871 0 0.00529696
0.0944643 -4.33681e-19 0.00387292
-0.0963608 4.33681e-19 0.0080336
-0.0983472 4.33681e-19 0.00089309
0.000489984 0 0.0989926
0.000298106 0 0.0989974
9.98871e-05 0 0.0990149
0.000485974 6.23416e-19 0.0991407
9.43293e-05 3.52366e-19 0.0991717
0.0156258 5.42101e-20 0.0985799
0.0159862 0 0.0985709
0.0163227 0 0.0985881
0.0156486 2.71051e-19 0.0988618
0.0163169 0 0.0988454
0.100273 8.47033e-22 0
0.100527 0 0.000376117
-0.0996924 -4.33681e-19 0.0164862
-0.0153342 5.42101e-20 0.0999685
-0.0157017 0 0.100002
-0.0153491 -5.96311e-19 0.100255
-0.0160629 -5.42101e-20 0.100255
-0.0159354 5.42101e-20 0.100286
0.0223804 0 0.099047
0.101881 8.47033e-22 0
0.101881 8.47033e-22 0.000192208
0.00827793 8.67362e-19 0.102722
-0.00796103 1.73472e-18 0.103582
0.0306339 0 0.0993579
0.0310997 1.0842e-19 0.0993793
-0.104275 -1.0842e-19 0
0.0306546 0 0.0997274
0.0318162 1.0842e-19 0.0994922
0.0315991 -7.58942e-19 0.099709
-0.104638 1.0842e-19 8.05868e-05
-0.105286 0 0
0.0238304 -1.73472e-18 0.102593
-0.105295 0 0.00275104
-0.104379 0 0.0178795
-0.106012 0 0
-0.104494 0 0.0179005
-0.106059 5.42101e-19 0.000135996
-0.104685 0 0.0179984
-0.105106 0 0.0181935
-0.105158 0 0.0181645
0.106335 0 0.00903021
-0.105483 1.4456e-20 0.0163085
0.106366 -1.35525e-20 0.00899459
0.10656 1.35525e-20 0.00909066
0.106652 0 0.00904642
0.106666 0 0.00912853
0.106703 0 0.00913178
0.0389247 0 0.101918
0.00012995 -3.95282e-21 0.110474
0.0163414 1.31761e-21 0.110172
-0.0191416 0 0.109734
-0.0198114 0 0.111366
-0.0196586 1.35525e-20 0.111396
-0.0197683 0 0.111404
-0.0198283 0 0.11142
-0.0197388 -1.35525e-20 0.111445
-0.0196539 0 0.111508
-0.0197831 0 0.111488
-0.0198447 0 0.111498
0.113578 0 0.00666074
0.0322092 0 0.109262
0.0511405 0 0.102094
0.0507775 -4.33681e-19 0.102531
-0.114165 4.33681e-19 0.00989877
-0.114708 0 0.0016754
0.114835 -4.33681e-19 0.000849152
0.0527008 -2.1684e-19 0.102434
0.0539343 0 0.102711
0.0510091 6.50521e-19 0.104226
0.0542576 1.0842e-19 0.1029
0.00866346 8.67362e-19 0.116531
-0.00813442 0 0.116649
0.0533187 3.25261e-19 0.104414
0.117703 -4.33681e-19 0.0134268
0.0243545 8.67362e-19 0.116163
-0.116704 0 0.0232834
-0.119064 0 0.0193726
0.0610898 -8.67362e-19 0.104043
0.0416551 8.67362e-19 0.113803
0.121295 0 0
0.121321 0 6.14248e-06
0.12137 6.77626e-21 0
0.121373 2.25875e-21 0.00252027
0.121429 0 0
-0.122507 0 0
-0.122533 6.50521e-19 7.07844e-05
-0.122882 0 0
-0.122883 0 0.00398503
0.064079 0 0.105101
0.12225 0 0.0146332
0.122283 0 0.0146366
0.122337 0 0.0146642
-0.123218 0 0
-0.123225 0 8.56715e-05
0.122422 0 0.0146785
0.064445 1.0842e-19 0.105292
0.123128 -4.51751e-21 0.0125447
0.0651888 0 0.105352
0.00149266 0 0.124291
0.0663232 -1.0842e-19 0.105687
0.0663364 -1.0842e-19 0.105881
-0.0199799 -1.35525e-20 0.123498
-0.0197045 5.96311e-19 0.123562
-0.0198916 0 0.123555
-0.0198223 0 0.123652
-0.0200161 1.35525e-20 0.123621
-0.0198901 0 0.123736
-0.0196768 2.43945e-19 0.123771
0.0166349 0 0.124281
-0.0199415 1.35525e-20 0.123815
0.064818 -3.61401e-20 0.107444
-0.12525 -6.77626e-21 0.0142145
0.0573201 8.67362e-19 0.114086
0.0323877 -2.71051e-20 0.123612
-0.125881 6.77626e-21 0.0277784
-0.125952 0 0.0278224
-0.126005 6.77626e-21 0.0278346
0.072535 -4.33681e-19 0.107441
-0.127356 -6.77626e-21 0.0249919
0.130261 4.33681e-19 0.00908994
0.129659 0 0.0169822
0.130817 4.33681e-19 0.00162317
-0.131264 0 0.00211156
0.0484574 -5.42101e-20 0.122385
-0.00760337 -4.33681e-19 0.131724
0.00919562 8.67362e-19 0.13163
-0.132124 -4.33681e-19 0.0100559
0.0244946 0 0.131479
0.0778716 0 0.109298
0.0779326 3.25261e-19 0.109494
-0.133149 8.67362e-19 0.0222073
0.0788766 -1.0842e-19 0.109597
-0.132267 4.33681e-19 0.0303529
0.0801537 0 0.110089
0.0801098 -4.33681e-19 0.110287
-0.0147993 0 0.135518
0.071423 4.33681e-19 0.116289
0.135315 0 0.0200291
0.135373 0 0.020051
0.0402991 1.73472e-18 0.130822
0.135459 6.77626e-21 0.0200798
0.0780214 0 0.11258
-0.0141346 0 0.13704
-0.0141608 -1.69407e-21 0.137038
-0.0141314 0 0.13707
-0.0127443 1.69407e-21 0.137217
0.136828 1.807e-21 0.016803
0.138728 -6.77626e-21 8.05679e-06
0.138767 -6.77626e-21 0
0.138808 0 1.00997e-05
0.138767 -3.38813e-21 0.00387315
0.0639079 -2.71051e-20 0.123344
0.00285256 0 0.138951
-0.139189 0 0
-0.139193 -2.71051e-20 4.19365e-05
-0.139353 0 0
-0.139356 -2.71051e-20 0.00449669
-0.139508 0 0
-0.139509 -2.71051e-20 4.45033e-05
-0.0736461 0 0.1185
-0.0736765 3.38813e-21 0.118505
-0.0736512 -2.71051e-19 0.11856
-0.0737242 3.38813e-21 0.118532
0.0170377 9.03502e-21 0.139454
-0.140488 -2.25875e-21 0.0169861
-0.137457 0 0.0340342
-0.137476 0 0.0340531
-0.137521 6.77626e-21 0.0340709
0.0560931 0 0.130714
-0.0630244 0 0.127609
-0.0630736 3.38813e-21 0.127587
-0.0630949 3.38813e-21 0.127604
-0.0630162 3.38813e-21 0.127654
-0.0630607 3.38813e-21 0.127642
-0.0631099 -5.6243e-19 0.127639
-0.0767264 -3.04932e-20 0.120268
-0.139458 -3.16226e-21 0.0306312
0.0323077 9.03502e-21 0.139267
-0.074725 3.38813e-21 0.122842
0.0895517 -8.67362e-19 0.113884
0.0855638 -8.67362e-19 0.118219
0.0481294 0 0.138624
0.14715 -4.33681e-19 0.00208459
0.146837 -4.33681e-19 0.0106817
-0.147274 4.33681e-19 0.0022809
-0.00627729 -4.33681e-19 0.147562
0.0789817 0 0.124875
-0.147614 0 0.0109443
-0.0700821 0 0.131069
0.00838968 -4.33681e-19 0.148422
0.147159 -1.73472e-18 0.0247926
0.0244717 0 0.147381
-0.147799 1.73472e-18 0.0243967
0.0717028 0 0.131591
0.151094 1.69407e-21 0
0.151094 -1.69407e-21 0.00430549
-0.057233 6.77626e-21 0.140466
-0.0572776 0 0.140507
-0.0572257 -6.77626e-21 0.140553
-0.0573568 -6.77626e-21 0.140503
-0.057305 0 0.140554
-0.0572765 0 0.140585
-0.0573563 7.65718e-19 0.140588
-0.0571969 6.77626e-21 0.14067
0.150513 0 0.0207855
0.0400398 -1.73472e-18 0.146987
0.0639055 -2.71051e-20 0.139001
-0.148229 -1.73472e-18 0.0394773
-0.0629095 -1.01644e-20 0.140043
0.0993584 0 0.118252
0.0993652 -5.42101e-19 0.118304
-0.0850603 4.33681e-19 0.129269
0.0996556 0 0.11839
0.0998498 2.71051e-20 0.118487
0.0998096 0 0.118542
-0.155096 0 0
-0.155097 0 2.49427e-05
0.155125 -1.69407e-21 3.59083e-06
-0.155183 0 0
0.155125 6.45439e-19 0.00444521
-0.155183 0 0.00465495
-0.155267 0 0
-0.155268 0 2.53063e-05
-0.00653262 0 0.155137
-0.00627198 0 0.155211
0.152881 0 0.0285262
-0.0064328 0 0.155391
-0.00627521 2.71051e-20 0.155524
-0.151629 0 0.0352588
-0.00633319 0 0.155633
0.155774 3.38813e-21 0.00813482
0.0977074 1.807e-20 0.121858
0.0170078 -4.51751e-21 0.155378
-0.155725 -6.77626e-21 0.0173219
0.0558552 8.67362e-19 0.146685
0.0881519 -4.33681e-19 0.131261
0.157555 -4.51751e-22 0.0159563
0.0321629 4.51751e-21 0.155317
0.155912 -1.69407e-21 0.0299959
-0.0548768 0 0.149218
0.156403 -8.47033e-22 0.0290841
-0.00451089 0 0.159143
-0.0785781 2.25875e-21 0.138603
-0.0552119 5.42101e-20 0.149932
-0.157017 -1.12938e-21 0.0302011
-0.0559665 -3.79471e-19 0.14991
0.157935 -1.50584e-21 0.0261526
-0.0554549 0 0.150228
-0.154087 0 0.0442871
-0.0553514 2.71051e-19 0.150814
-0.0560577 3.79471e-19 0.150709
-0.00370518 -2.71051e-20 0.160771
0.104857 4.33681e-19 0.121949
-0.00355413 6.77626e-20 0.160801
-0.00365117 1.35525e-20 0.1609
0.0790895 0 0.140173
-0.00370256 0 0.160946
-0.00355014 0 0.160964
-0.00374372 0 0.160985
0.0478442 -1.35525e-20 0.154893
-0.0701737 0 0.146593
-0.162958 0 0.00233059
-0.156524 0 0.0457885
-0.156532 0 0.0457937
0.163095 4.33681e-19 0.002272
-0.163155 0 0.0111415
-0.0539692 0 0.154439
0.0716371 0 0.147154
0.16372 -8.67362e-19 0.0109135
-0.0538443 2.71051e-20 0.155004
-0.15858 2.11758e-22 0.0426538
-0.0535845 5.42101e-20 0.155301
-0.0537542 2.71051e-20 0.155433
0.00797658 -4.33681e-19 0.164313
-0.0540687 -2.71051e-20 0.155367
-0.0534733 0 0.155608
-0.0539929 -2.71051e-20 0.155603
-0.0537653 2.71051e-20 0.155834
-0.053394 0 0.156002
-0.0541524 -2.98156e-19 0.15585
0.0244705 -4.33681e-19 0.163327
0.16221 8.67362e-19 0.0319512
-0.098625 0 0.132795
-0.0985096 0 0.132934
-0.163834 -4.33681e-19 0.0243829
0.164041 -8.67362e-19 0.0234822
-0.0989761 0 0.133011
-0.0986386 0 0.133385
-0.0991553 -2.71051e-20 0.133124
0.110561 0 0.123997
-0.0990824 -4.60786e-19 0.133394
0.110523 -5.42101e-20 0.1241
0.110851 0 0.124143
0.111287 0 0.124399
0.111236 1.0842e-19 0.124461
0.0637087 9.03502e-21 0.154625
0.102865 4.33681e-19 0.132674
0.10895 0 0.127735
0.0398963 8.67362e-19 0.163197
-0.164308 -8.67362e-19 0.0382154
0.0946646 -5.42101e-20 0.140304
-0.162327 -4.33681e-19 0.0480596
-0.0884744 4.33681e-19 0.144452
-9.71046e-06 4.23516e-22 0.169664
0.000166543 0 0.170088
0.000408699 0 0.170103
-0.17072 0 0
-0.170773 -6.77626e-21 0
-0.170825 -6.77626e-21 1.56697e-05
-0.170773 -4.51751e-21 0.00468902
0.166965 0 0.0361826
0.166999 -6.77626e-21 0.0362002
0.170934 -6.77626e-21 1.58986e-05
0.167055 0 0.0362229
0.170989 6.77626e-21 0
0.171045 0 0
0.17099 0 0.004644
0.0872301 0 0.147557
0.017467 -4.51751e-21 0.170707
0.000835171 0 0.17191
-0.171009 0 0.0176594
0.0556436 -8.67362e-19 0.162903
0.169303 0 0.0322672
0.169333 5.29396e-23 0.0321454
0.169317 5.29396e-23 0.0322427
0.169429 -2.11758e-21 0.0322323
0.171598 -2.25875e-21 0.0176964
-0.0795497 -1.35525e-20 0.15453
0.170942 2.64698e-23 0.0332669
0.0321247 -9.03502e-21 0.171253
-0.0577178 0 0.164416
-0.166326 0 0.0526363
-0.166351 0 0.0526567
-0.171769 1.05879e-22 0.0315344
0.0793992 -6.77626e-21 0.155604
-0.169068 1.69407e-21 0.0488654
-0.169064 0 0.0488981
0.120034 0 0.129853
-0.0713441 8.67362e-19 0.162074
0.11611 8.67362e-19 0.134549
0.047662 -1.35525e-20 0.17122
0.0714249 8.67362e-19 0.162922
[...]
POINT_DATA 28504
FIELD attributes 1
p 1 28504 float
6.61767 59.9509 60.9329 60.0368 -97.8747 -95.008 -95.0118 -95.0325 58.8886 59.9166
59.1943 55.3807 58.7643 58.1909 58.7264 52.3254 52.4076 49.2322 51.6098 50.7259
50.7245 -74.1962 -95.058 56.5038 59.2332 31.0542 31.0415 30.9978 31.0538 30.9981
32.7252 32.7721 32.7495 32.7278 32.7506 -72.1265 -71.5992 47.269 25.5101 25.367
25.509 25.1562 25.1891 33.0596 -68.816 -68.6867 32.2971 29.8036 33.4962 33.5862
58.0217 33.4941 33.5865 33.5828 58.0008 56.9705 33.2435 56.7827 49.9425 57.6146
49.9412 57.6144 49.4252 50.1393 50.1307 -59.8755 53.1131 -59.9016 -59.4917 -59.0485
-58.9961 -59.0005 33.8462 28.9605 31.4491 21.2743 20.5805 20.6299 20.5646 20.5689
20.5719 20.6228 20.5215 20.5085 -35.9689 32.3439 34.9966 34.9941 54.6417 56.5545
-46.4558 35.8786 36.3994 34.5055 36.3588 29.9337 27.4898 35.7465 -33.2981 30.8166
53.6385 57.5975 36.8829 31.4555 -28.9743 -28.9721 -28.9069 -27.1543 -28.7369 58.2401
58.24 58.0507 57.9688 38.6472 -22.919 -22.9181 -22.9176 58.3525 58.3525 -22.6977
38.6237 -22.1457 38.8612 26.819 39.6996 39.654 12.7756 12.9095 12.7488 12.7404
12.7526 12.4819 12.8419 29.0511 12.3972 39.0113 59.0245 37.1001 29.7494 55.9333
55.8703 55.9573 41.6594 58.2178 -7.50963 -13.4815 -11.9562 60.0243 32.1399 22.4292
27.4215 60.8345 28.1884 42.157 42.1249 62.9124 41.7811 57.6238 42.6039 42.5536
9.87815 41.4025 -10.7955 -10.8472 28.7456 -10.7426 42.2406 9.53733 9.52849 9.52837
10.4974 -4.56047 -3.72657 -3.72135 -3.64901 -2.32616 35.8553 21.4481 61.7507 61.7507
61.699 61.9636 61.8101 61.8101 28.9797 28.9589 28.9699 28.9563 26.0989 62.2609
60.7536 60.7287 60.7847 31.1831 30.3853 30.4036 30.4009 30.4417 30.4147 30.3965
28.6818 62.5284 26.4095 28.8372 42.6678 42.9223 26.9828 4.46168 6.5948 63.5088
11.4183 38.1394 63.6721 30.5379 23.7605 -6.63823 24.9483 61.4627 33.4931 5.00891
5.65579 30.1286 30.0836 30.112 30.0544 30.0351 30.0781 30.0306 30.264 3.44249
23.8488 28.3382 65.2009 29.6098 45.2106 45.2014 29.1839 45.2541 45.4528 45.4299
64.0784 64.0784 7.84365 64.05 8.25582 64.0993 64.0866 64.0866 2.96869 2.80805
-5.56541 2.69915 2.64561 67.7732 2.69564 7.93822 42.5836 21.1589 64.3369 24.057
34.914 7.63393 21.4464 -4.66133 31.3916 -3.38387 -3.63945 28.4073 29.8523 67.1502
29.4117 0.694812 29.3481 65.6775 29.5857 29.2322 -6.3971 46.8877 -6.24188 -6.49074
29.504 -6.71383 -6.31184 -6.7763 20.8651 27.4631 64.6521 66.3985 66.3994 11.1903
64.5932 30.1406 24.4706 11.0308 29.3316 68.151 29.4074 29.2855 16.5295 29.1408
28.799 28.9442 29.3663 29.743 28.9916 19.0781 -3.26821 26.7748 26.7749 67.6405
7.90375 26.7558 26.7308 26.6996 48.6301 26.7062 48.6014 48.4103 48.7332 48.7214
20.898 43.2229 47.3415 17.9618 71.4518 32.8529 67.2172 26.366 -0.465919 -0.161856
0.0195044 65.494 65.4844 65.504 65.5494 -6.25506 -6.30589 14.8142 -6.29262 14.8043
14.8672 14.8293 25.7759 13.3597 0.282001 67.1823 17.5645 1.01171 1.13572 1.05715
1.10795 12.794 25.7048 0.796327 14.8796 26.6436 72.0761 72.1112 70.2829 21.2284
73.524 73.5268 51.596 25.0896 49.4173 14.6728 17.3072 66.3438 25.1451 18.4782
24.8236 37.7399 24.8275 24.8235 66.65 24.8151 24.8151 18.8203 25.5265 24.8101
27.4871 24.2443 23.7429 6.24715 23.8494 23.99 69.9411 24.1216 13.5121 23.4864
24.4454 -10.7273 10.8247 22.321 14.935 71.8086 11.3328 24.4648 23.2931 21.2608
17.5308 -1.35059 79.4796 66.4871 66.481 66.488 66.5299 20.2989 20.2989 20.2727
20.4773 20.3378 20.3378 45.8144 45.7881 68.2259 11.8437 18.1907 44.7775 15.5233
80.9012 71.1446 41.0773 71.893 44.1888 44.1904 21.3853 24.3889 4.57793 4.58118
4.56207 30.7854 4.57182 4.56192 15.9217 23.6203 10.1952 9.72889 24.1271 -9.40661
-9.43451 -9.3916 22.4353 12.9971 18.4781 77.4818 -1.98077 10.8522 3.24486 3.3677
17.7588 3.22255 66.6314 3.17612 3.30245 3.14189 66.5083 22.1519 15.6532 83.9523
83.9355 22.5338 83.9923 21.379 69.8416 16.4945 83.8029 17.6642 8.81124 11.8616
76.1533 14.1888 38.9021 19.8804 9.46988 9.74865 35.9355 12.5827 23.341 23.3407
27.8764 23.3046 23.2449 23.2626 23.2625 20.3239 22.4082 66.5783 66.5749 66.5776
66.4011 22.7935 22.7935 -0.659346 80.8552 22.7569 -0.690864 23.0639 -0.570461 22.8106
22.8106 -0.746539 -0.688646 -0.674278 67.9841 67.9871 -0.578608 -0.652719 -7.95112 13.2908
10.5123 21.3937 71.14 18.0017 21.1272 15.0384 7.92638 72.9102 12.6158 15.5402
8.61275 -1.10589 88.6607 19.9377 15.815 12.1045 11.6576 11.6571 11.6236 11.6587
78.9523 8.76839 37.8124 37.802 89.7881 10.3795 17.3587 6.7033 15.0572 66.5246
65.8807 23.4507 36.8319 33.3182 24.2337 24.857 69.7329 21.0776 36.3969 36.3967
5.88877 22.2794 22.3069 -9.34914 20.6357 -9.39927 -9.36936 85.8908 11.8669 13.6872
13.8674 76.0914 6.45897 -3.4336 17.4333 21.2151 19.8673 13.8699 9.84369 95.8653
95.8616 95.9559 -4.89513 -4.82744 -4.76581 11.6575 18.3836 11.847 11.8118 16.6139
-4.91268 11.9148 -4.83253 11.7742 11.8312 -4.66 11.5072 66.1304 66.007 94.5762
82.9426 5.1853 23.2757 23.2757 8.19225 23.2331 23.7162 23.274 23.274 13.6983
5.16163 67.7714 23.0357 -10.3209 11.4198 10.7289 16.682 72.1935 15.6586 18.9096
10.0081 4.78102 10.2468 11.9343 35.365 31.0408 10.8934 89.7221 25.3546 11.7242
4.14774 78.568 13.4184 20.1329 20.4077 -12.471 -12.4712 11.7945 -12.543 -12.5301
-12.5277 15.4866 12.0193 21.2822 21.2822 9.86076 21.2459 21.2416 21.2215 21.2169
18.8764 -4.14236 23.0988 18.7991 24.2317 103.169 22.6436 85.8632 17.524 17.3374
6.04726 -4.89051 15.3903 5.05239 12.0426 73.9558 101.868 18.1953 14.0909 14.3158
17.3114 36.1441 36.1435 7.53083 32.1718 10.8694 6.55533 4.50311 81.2863 35.8882
95.2397 25.4052 20.4253 14.4402 20.4146 20.4147 20.4121 20.3947 21.871 21.871
20.3896 21.8275 22.36 21.8425 21.8425 65.8125 10.6547 35.7098 35.7112 4.87655
-15.6458 65.3423 22.2628 17.0214 22.7017 -17.8003 -18.4944 10.5422 -18.996 20.1758
-18.5992 70.8644 -17.9168 18.0287 20.4016 64.9621 107.944 107.898 108.032 89.9331
-5.49119 4.40476 2.36195 76.2544 6.51013 3.54017 2.68902 2.84954 3.37102 19.8828
105.885 15.5418 1.7616 3.32923 0.784637 19.5189 16.8268 5.81263 14.9542 12.7994
19.367 -31.1763 -31.1789 -32.2481 12.6236 -31.4747 -30.2433 -31.2629 12.5626 19.0536
20.6128 8.22377 21.6588 84.1421 3.51293 99.0638 19.0406 5.25567 20.5083 -17.2851
-17.2855 7.2026 16.1169 -17.3767 64.7327 -17.3234 32.1506 -17.3221 36.611 28.5833
70.9775 10.1392 18.3592 19.3491 19.0496 11.1067 25.1147 -9.49235 112.681 16.653
23.7596 4.79717 92.9347 21.8607 78.7394 11.061 4.68034 64.1812 13.3329 18.7415
18.7968 18.7968 18.7629 22.3904 19.345 14.4311 18.7516 112.232 10.9807 20.0505
68.2786 19.1072 21.9991 4.97863 -5.15544 -3.25993 11.2939 0.191296 86.6359 4.20798
10.0796 -1.6247 -0.367463 -17.0309 6.95719 -17.9007 -5.77393 103.844 -17.734 -18.5611
73.7019 0.133683 -17.9572 -18.4698 16.3261 -12.0284 -17.7518 -18.958 15.4599 8.33388
39.9078 39.9094 36.411 39.986 10.9735 17.6456 17.6473 17.6302 17.627 17.6169
17.6169 31.7834 40.2145 40.2121 21.3694 20.7542 29.2598 120.52 120.524 120.527
120.669 120.667 4.3569 -10.6425 96.7287 80.6655 8.22607 15.9309 27.2189 13.0221
13.4437 5.1629 117.323 19.45 26.299 18.7674 13.1919 5.09274 5.17975 5.09153
5.08535 5.16461 89.0374 5.16584 -1.33342 8.08606 31.5676 9.06666 9.89545 -27.2304
-27.2357 25.2763 107.21 -27.3869 -27.4253 -27.422 12.6985 16.9722 126.046 11.4757
20.8782 63.0172 -19.1163 63.8466 16.5795 7.72047 38.2224 23.2596 35.3843 15.091
43.611 82.1828 18.0579 5.30854 3.84064 98.8156 13.2529 33.2067 16.5246 14.6015
5.75855 14.3805 -17.5092 -33.1198 15.6418 69.7985 31.6846 20.7076 -10.3252 -8.12566
-2.90216 129.755 129.713 129.806 123.748 -10.6265 12.6689 30.4534 -3.78833 29.8308
-3.17794 9.75062 7.48944 0.615822 -1.23759 90.659 77.0392 -1.26211 128.262 128.287
8.39919 11.5546 19.013 21.7266 111.991 -32.436 -32.4359 -32.4547 28.3104 -32.4169
9.81874 40.5813 18.2924 133.654 -28.3778 40.8088 42.7789 42.7766 7.10391 25.6529
83.3699 42.7119 14.6911 42.6594 42.6486 133.656 38.2052 14.5891 13.5923 -0.528835
14.5896 16.3616 101.266 25.5931 -21.336 127.422 36.9643 12.6942 11.5182 31.3926
24.2236 13.1358 35.9543 61.6505 61.6477 61.9988 13.2454 13.2241 13.2279 13.703
5.55803 14.9431 8.24776 11.4774 34.2058 76.2949 9.26718 92.1975 9.26587 9.36176
21.128 39.0826 -12.2679 39.4963 4.37766 34.0587 42.124 15.1113 64.8916 35.1793
35.2206 22.0077 139.138 139.117 139.179 -31.416 116.093 9.46739 9.52161 9.51911
9.81027 31.7867 14.3756 42.467 135.104 11.2643 -28.0644 12.0366 84.3378 -28.8839
12.3807 12.3954 20.5296 -7.52348 30.231 7.17169 71.995 12.4898 13.3927 3.18143
40.4372 31.6563 103.831 12.4802 12.4834 7.13266 11.8663 41.1577 41.1521 41.1492
-22.7494 41.1019 41.0969 12.2487 40.5314 12.0756 46.2044 28.5504 52.718 4.57154
126.662 40.2219 18.2568 19.4099 78.5919 92.5537 -1.91074 12.597 12.608 10.3897
-16.9448 144.223 27.2715 12.5906 12.4238 38.9164 -32.7006 45.0849 -32.7312 -32.7167
12.6974 12.7328 14.9622 15.241 3.44753 -27.9256 15.3193 8.74736 15.0759 -29.9248
36.9648 146.274 15.2208 14.5182 -29.2943 -29.2931 14.7998 57.2092 14.8946 57.4281
57.4917 60.2784 24.7377 14.6389 10.488 61.1211 116.849 15.0501 85.3703 60.9023
14.8029 11.3785 -12.0808 28.5421 11.7513 2.60515 7.1918 34.931 106.272 142.535
-24.3819 17.8915 23.1337 -28.3501 61.5999 40.3875 39.3038 65.0131 34.6575 10.5929
66.7071 44.6855 4.83237 11.7893 15.5879 129.849 -7.20547 12.1879 12.1343 45.786
11.875 11.4847 -20.5365 42.8543 69.3107 5.12765 33.8809 -33.8954 11.7508 98.5072
20.3067 20.5692 19.9175 20.1668 20.3871 20.2252 20.5603 45.0693 20.5144 20.4696
2.40032 31.0081 119.168 22.0157 7.72443 151.191 151.182 151.231 -29.062 73.8805
10.3998 42.119 10.3024 72.7698 24.9528 -16.5434 10.0188 -1.71498 9.86384 9.87422
145.011 6.41993 41.8996 107.231 -25.8948 2.39792 46.5656 85.5561 85.7009 62.5006
85.7839 85.6741 85.5952 85.6239 85.8239 47.5429 47.5111 85.2827 28.3669 48.0007
41.2848 47.9492 47.9249 14.228 5.16602 130.473 -11.4021 58.7986 58.7961 154.354
59.0165 49.7585 -24.4642 -38.2546 8.14323 -38.2988 36.4949 8.12613 -38.315 8.12309
8.22397 39.7106 4.24708 8.68873 53.1737 22.9145 -32.8471 61.0196 23.6217 7.67804
23.3555 -33.0708 22.9175 2.92507 -33.0789 22.5565 22.7724 118.303 52.0921 23.3464
22.8215 7.02269 -19.9637 22.4238 85.837 18.6909 23.1114 158.23 158.231 158.17
4.37953 158.345 158.343 23.0169 37.6109 -6.64057 53.7604 50.9438 54.8468 -25.4871
66.0084 -41.2399 3.32784 106.964 0.909031 5.67955 49.2308 155.343 99.3255 99.0995
145.011 99.5226 99.2927 99.2015 98.8955 61.3196 47.6281 -15.2218 6.48642 31.3691
4.57882 6.52768 61.7819 97.3683 130.871 -2.52916 6.2894 -36.8697 26.5604 -36.8511
162.831 6.1133 27.0619 26.7212 6.11656 26.4178 65.882 65.8891 1.13039 45.9138
66.0334 66.4629 66.5788 26.054 26.7068 26.2223 26.4351 74.7818 64.2143 26.2475
26.7053 -33.7087 76.7958 26.7679 -31.8873 3.21219 -24.1222 117.765 -23.229 14.0967
62.4218 6.00497 57.3144 -19.6278 59.4291 -12.6067 4.88676 48.92 57.6073 -25.6363
4.75114 159.23 75.9175 29.5592 105.915 55.9974 1.30504 4.89424 91.1858 91.3753
30.0338 91.332 91.2857 91.1686 90.9649 29.533 29.2414 29.806 29.1716 29.118
167.827 167.829 167.615 144.787 168.101 168.095 -19.5295 53.9931 -24.2866 60.546
3.12342 21.9933 47.2673 -30.6647 3.63375 4.23895 165.918 94.6679 -0.652019 130.761
-27.8013 -25.6633 76.3143 78.1416 78.3769 28.922 -33.1875 172.714 28.8458 29.3434
28.8763 29.0259 77.5967 78.0179 -20.8242 28.911 77.0697 3.10428 29.2063 29.195
-17.8844 116.623 29.2876 78.2766 6.216 65.9383 3.31639 78.4982 78.885 3.32208
86.8103 172.94 72.3874 39.2716 3.29118 3.19703 42.9702 -0.152658 3.19947 172.749
-6.61987 83.7042 83.6027 83.7135 83.6334 83.6296 83.5636 162.498 -20.877 65.2659
104.402 1.72116 61.6009 -12.2437 54.9777 -22.3286 3.61216 -16.5995 -23.3835 -23.4422
-20.0984 -23.8202 -23.2121 -24.8308 -24.7079 -21.7063 -31.5025 144.357 -22.3081 -21.4754
-15.2724 16.5876 -0.764362 173.855 173.86 3.4001 173.704 55.5625 95.9968 173.917
173.918 55.6473 0.510699 1.2566 1.2523 1.2337 60.067 -26.7338 128.022 48.3062
72.6103 40.2102 57.0047 38.4373 39.6974 -60.8399 39.8014 74.555 39.5961 0.625981
38.8323 165.331 -19.6979 -13.7967 79.356 38.0261 3.22816 -21.1134 3.08276 38.277
113.579 73.6012 -32.0041 -35.2224 -35.1863 -34.6422 -33.36 34.9804 -33.4319 24.7423
-1.27557 30.2158 35.2472 34.981 34.86 34.8149 34.8073 66.2661 66.0846 66.1632
34.0113 66.1233 35.0694 5.37857 5.38132 5.56279 5.76735 35.0552 5.39672 34.6987
6.00113 6.01027 14.9867 21.094 18.946 16.5023 15.0251 18.736 31.5827 35.2591
-9.51645 69.9569 -15.2294 152.843 63.1357 2.77055 16.5536 102.766 36.8111 23.7795
20.905 35.5037 1.42875 36.6446 1.43294 36.084 36.1349 1.4549 1.39877 -17.1767
-17.1724 -4.61274 37.4269 1.40313 35.8547 -18.0273 175.148 35.3565 -1.05077 8.33835
60.3047 -28.791 -28.7868 -28.7666 35.8084 14.1209 -1.06424 138.706 -12.403 77.5927
77.2142 76.9731 55.791 -0.414599 2.49221 2.33041 -3.42936 11.0557 76.0046 76.0927
76.0091 -24.6118 75.9907 76.2795 124.762 16.7249 66.29 38.3898 -20.9084 -21.1736
16.9292 176.32 176.241 176.333 -1.49975 45.5091 -15.5539 37.3521 20.6992 37.419
49.232 48.859 37.0947 49.063 49.3486 49.4863 48.881 71.3127 84.3019 3.25986
28.2478 37.6905 113.855 46.2412 -25.0879 37.1148 45.7327 37.6622 45.0942 31.2818
16.6973 29.1099 34.8994 0.843726 27.7266 44.7382 53.81 27.0798 68.8055 45.6154
31.8518 20.7113 161.983 170.773 -19.4442 -2.3705 53.8601 -19.4255 -19.4886 44.6124
29.1851 28.0685 -19.3821 -19.4429 -19.4416 -2.41381 177.2 3.82159 45.6364 12.3712
-20.5638 12.3724 5.5713 12.3708 12.3706 -11.9016 147.594 41.4454 12.5407 31.4884
12.5737 12.572 12.5756 12.5719 12.5755 -0.703478 55.963 65.4612 -19.8963 -19.8855
-19.8191 29.2743 -3.50948 6.14656 28.9962 28.9921 177.669 28.9128 34.6013 28.8786
12.468 133.763 -17.611 3.3295 43.4582 43.0265 1.4498 1.45182 43.6512 1.46635
1.4557 -18.1808 43.4512 1.45689 43.581 44.993 72.9256 43.8609 43.8081 73.1862
121.018 72.8568 -16.8297 15.8414 72.4975 74.0994 72.5769 -18.2039 72.4069 43.7633
72.5847 44.4623 43.7126 -19.715 43.6994 40.9665 11.4034 72.7923 -0.810353 42.2155
41.9179 41.1049 -17.7424 41.6728 14.7754 41.3729 -17.7988 -17.7977 -17.7311 41.4542
-17.7972 59.3655 55.0492 3.32332 1.78142 -12.4914 55.8051 -11.4483 178.914 178.913
178.752 55.3777 178.954 178.951 3.52196 54.5982 58.9741 53.9017 55.3134 51.2118
12.415 26.9884 69.2242 54.5351 167.654 23.217 27.8623 55.2692 42.6418 6.19671
45.9909 -23.4165 3.87189 96.5703 155.657 1.09304 174.817 11.3391 -3.29456 50.4197
-18.4533 -18.453 -13.4195 69.8796 49.3385 0.291745 143.005 50.4691 51.3078 51.0348
56.7603 56.4947 56.5063 56.5041 35.3764 12.7262 56.1954 -9.87453 129.442 56.3946
51.8804 56.4336 52.0177 52.7359 23.431 -6.05617 11.7701 -10.5206 63.0073 -5.88288
65.3868 180.181 12.3776 53.8408 62.9863 53.5767 33.5542 33.0232 53.9707 -10.7286
33.4708 62.9957 53.8267 33.9306 34.1375 62.5112 33.1166 -22.5923 -5.98188 9.68754
53.5272 62.4943 -16.2742 116.912 53.8217 11.8735 53.6806 62.281 4.19082 11.8729
62.0241 -6.52501 -14.4035 -14.3267 -14.3457 17.7295 -21.1516 -14.3257 17.6777 41.7607
11.8362 17.6535 11.8359 2.60496 -2.16866 2.53483 62.5802 2.5506 2.56132 2.54086
41.1522 2.61827 2.58182 2.57707 55.6815 67.1689 83.1855 -6.5264 23.7304 32.1613
11.5367 11.5374 67.1792 11.523 11.5154 11.5099 11.51 67.3186 16.6725 66.6641
106.331 66.331 55.6829 55.5009 2.68476 55.8221 55.916 55.3092 -12.6779 184.023
-12.6841 184.034 55.9583 55.8057 55.7014 22.2352 55.8825 11.2369 -10.906 1.59351
11.2559 59.5153 173.337 -23.3112 59.3863 59.4039 4.15877 162.297 -21.6275 59.0097
59.0821 19.0007 37.441 150.511 29.7295 184.875 58.8221 59.3501 58.703 58.8955
-0.0517073 0.599247 -8.7195 137.034 29.2332 28.8996 27.8927 12.0457 28.757 181.422
28.1067 63.3945 28.0649 11.1283 -0.830858 66.8985 -6.08464 42.9298 50.0738 35.6598
10.6128 124.303 -19.6441 10.874 24.5217 60.1087 3.69158 72.2251 -25.6923 -12.1376
-8.83355 60.2294 59.8928 24.6856 -1.29873 10.8525 60.4566 112.732 60.5131 35.7008
-5.11554 -5.09162 -5.10239 60.6328 60.3904 -4.84593 60.2795 -4.34055 60.7371 10.3516
-9.7467 188.716 4.51472 48.871 29.4591 101.621 61.6494 61.7638 62.0861 61.8181
-9.3133 61.9952 13.6638 -9.14031 62.1305 62.0567 3.78234 3.77197 3.76901 3.77028
-9.39213 184.293 10.0779 -19.5166 40.4428 10.0786 9.38179 -24.7 9.3526 -24.7103
2.2501 9.35343 10.0214 -9.34339 -2.2531 157.992 9.96299 171.312 9.96228 10.0715
46.5148 93.3112 56.9282 34.4037 143.908 36.5803 -6.72272 -4.66618 64.2375 30.9992
4.28304 4.27268 4.27157 4.26864 4.25992 9.71602 130.577 -10.8574 71.3418 0.401765
64.8728 71.3775 -0.8615 71.9364 45.3155 -2.9164 72.8849 54.4377 72.8777 72.2408
8.24614 8.24884 71.9287 -23.6666 3.64555 8.16154 31.3778 118.979 22.5254 8.15247
-6.10928 8.08785 1.2555 73.1005 191.734 191.738 8.0651 38.8654 191.663 191.836
-24.0129 191.836 3.02838 3.03507 2.99876 3.03275 -1.35539 6.72062 108.241 8.30801
61.3755 61.4019 61.4145 61.3854 61.4019 61.4715 61.417 61.3767 79.7226 34.379
-17.9074 182.918 9.15879 53.9313 46.5025 60.8021 100.736 66.4758 9.1267 42.8187
39.4243 167.677 -27.5307 -12.4465 50.6888 -4.17871 2.05914 10.7199 2.02937 2.02406
61.1392 8.58511 2.00449 2.00346 1.99755 151.966 65.531 28.9099 28.9811 0.350888
62.8653 29.6136 -3.6445 37.8235 -23.1732 29.4283 193.687 35.5513 29.5634 -2.38551
137.095 -0.454098 -2.7942 -0.164681 -1.71988 88.1776 124.622 0.369857 35.8643 8.20041
88.6939 3.90597 3.90625 193.11 193.111 3.85327 46.9922 192.872 -21.8571 3.85968
8.06684 193.072 88.103 193.076 1.57735 41.2952 88.8347 -26.5775 5.23921 -12.5127
-12.5174 70.7866 -12.4864 5.20263 5.26789 3.29205 89.7569 1.55927 112.999 89.6964
60.6078 5.17452 1.05356 5.94996 8.44119 60.5431 60.5296 60.4771 5.17623 60.5081
1.31741 60.4814 57.6571 48.6358 53.359 -2.2371 1.07541 61.7096 59.1785 48.0195
46.7557 -13.2445 37.7815 35.6868 -0.0340994 35.1771 63.6955 35.8668 103.877 36.2045
185.097 36.2476 35.5347 41.0647 81.6258 -7.1012 8.16872 8.07187 65.4229 171.92
7.01436 11.2222 45.3326 -25.6119 61.0797 61.0169 157.584 52.7317 38.5507 -17.3235
40.2817 -25.6501 -0.943804 192.433 1.16134 -1.67282 -1.67071 -1.66611 -24.1093 -0.177794
143.013 -0.167862 7.44393 -0.289328 -0.258751 -0.258512 129.694 87.1562 -0.397996 69.9433
-1.36095 7.78165 1.74095 39.0135 -0.180065 63.1531 59.2288 61.5837 4.68274 61.646
53.8604 118.138 -15.4656 -1.02684 61.6829 4.45388 7.68984 61.703 62.7782 61.7801
61.6719 4.6633 2.28017 4.6735 192.353 61.727 192.355 50.7104 -29.1468 4.66096
192.116 20.176 43.2536 7.46205 192.349 192.352 2.28315 47.2855 5.13626 2.12257
6.03244 64.8533 2.60432 52.6664 -0.295615 64.9158 110.444 60.8548 2.73169 2.74059
-24.6004 40.8584 42.0945 -4.92721 35.6153 -1.09404 35.5509 34.7298 62.1909 -26.2454
35.5817 184.846 1.48903 35.2526 76.9076 35.198 -1.17347 -1.17388 174.437 -1.22737
7.38537 6.53015 -1.21207 7.19654 -1.2129 -23.8546 60.4776 40.7544 161.462 48.3551
-28.2017 7.30262 43.5739 13.2565 57.8675 -15.636 147.704 192.283 -15.5637 91.3644
91.4441 91.4521 91.4021 91.3391 91.4052 91.4099 58.2079 1.9928 62.3962 59.757
134.595 59.7539 59.7374 59.7295 59.7366 59.7064 -0.868589 52.8557 60.2283 -28.4194
41.7139 64.7761 -0.513927 2.15708 -0.613774 74.1961 57.6461 -0.788509 -10.5553 2.04854
122.142 -0.312937 6.9773 1.91562 7.05946 2.07776 -17.2057 47.8727 65.0548 112.077
2.11131 -27.2239 2.10924 47.8099 5.34315 59.5464 192.625 192.627 54.9255 192.412
192.647 192.648 -3.41662 3.54839 -0.577485 68.0884 3.41729 63.1083 34.1321 -27.5384
3.41949 33.8048 43.7114 3.34167 68.664 45.1941 3.85247 34.4121 3.52594 6.9785
34.6181 3.87944 34.5789 6.26376 34.1741 4.06926 6.99282 -0.64319 184.971 -23.4087
93.9833 45.0751 6.87051 -17.8534 -0.452292 174.755 -30.4753 62.2362 14.3109 53.7532
162.82 57.5297 56.9788 65.3822 6.74496 47.1354 56.906 56.8223 56.8439 56.8169
56.7957 56.7582 56.7934 56.7566 150.273 56.6379 66.0908 52.7753 80.3818 192.978
6.08721 80.7596 80.7334 -27.0246 137.766 80.6189 80.5087 -8.40684 80.515 46.4424
64.3057 63.5867 31.1401 31.1664 125.608 49.4015 60.7669 -0.225246 30.6891 -0.744128
6.83061 6.82962 9.54932 -5.13106 3.83814 31.2134 82.7456 -5.16869 -5.15181 -5.15217
-0.428514 6.57757 9.54048 4.03936 4.04114 30.3766 9.66065 61.3221 55.4798 10.0345
118.075 0.908655 -25.413 10.0227 4.03505 4.14932 -0.23775 4.03781 2.90725 6.89077
6.75786 52.5984 0.224497 25.9325 -29.5783 48.5616 48.8131 56.9932 45.2353 61.4209