# vtk DataFile Version 2.0
sampleSurface
ASCII
DATASET POLYDATA
POINTS 28504 double
-0.0506574 3.25261e-19 0
-0.062995 -2.1684e-19 0.00286487
-0.0639362 -2.1684e-19 0
-0.0646056 0 0.00195427
0.0718605 0 0
0.0722397 0 0.000129588
0.0723242 0 8.8702e-05
0.0723674 0 0
-0.076776 0 0.00490487
-0.078839 0 0
-0.0819432 0 0.00117323
-0.0837712 0 0
-0.085993 2.1684e-19 0
-0.0861209 -4.33681e-19 0.00148642
-0.0866036 0 0.000171251
-0.087847 -1.0842e-19 0.0116384
-0.0881965 0 0.0112786
-0.0900038 0 0.0123483
-0.090643 -3.25261e-19 0.0118454
-0.0906976 0 0.012618
-0.0909317 -1.0842e-19 0.0126548
0.0920871 0 0.00529696
0.0944643 -4.33681e-19 0.00387292
-0.0963608 4.33681e-19 0.0080336
-0.0983472 4.33681e-19 0.00089309
0.000489984 0 0.0989926
0.000298106 0 0.0989974
9.98871e-05 0 0.0990149
0.000485974 6.23416e-19 0.0991407
9.43293e-05 3.52366e-19 0.0991717
0.0156258 5.42101e-20 0.0985799
0.0159862 0 0.0985709
0.0163227 0 0.0985881
0.0156486 2.71051e-19 0.0988618
0.0163169 0 0.0988454
0.100273 8.47033e-22 0
0.100527 0 0.000376117
-0.0996924 -4.33681e-19 0.0164862
-0.0153342 5.42101e-20 0.0999685
-0.0157017 0 0.100002
-0.0153491 -5.96311e-19 0.100255
-0.0160629 -5.42101e-20 0.100255
-0.0159354 5.42101e-20 0.100286
0.0223804 0 0.099047
0.101881 8.47033e-22 0
0.101881 8.47033e-22 0.000192208
0.00827793 8.67362e-19 0.102722
-0.00796103 1.73472e-18 0.103582
0.0306339 0 0.0993579
0.0310997 1.0842e-19 0.0993793
-0.104275 -1.0842e-19 0
0.0306546 0 0.0997274
0.0318162 1.0842e-19 0.0994922
0.0315991 -7.58942e-19 0.099709
-0.104638 1.0842e-19 8.05868e-05
-0.105286 0 0
0.0238304 -1.73472e-18 0.102593
-0.105295 0 0.00275104
-0.104379 0 0.0178795
-0.106012 0 0
-0.104494 0 0.0179005
-0.106059 5.42101e-19 0.000135996
-0.104685 0 0.0179984
-0.105106 0 0.0181935
-0.105158 0 0.0181645
0.106335 0 0.00903021
-0.105483 1.4456e-20 0.0163085
0.106366 -1.35525e-20 0.00899459
0.10656 1.35525e-20 0.00909066
0.106652 0 0.00904642
0.106666 0 0.00912853
0.106703 0 0.00913178
0.0389247 0 0.101918
0.00012995 -3.95282e-21 0.110474
0.0163414 1.31761e-21 0.110172
-0.0191416 0 0.109734
-0.0198114 0 0.111366
-0.0196586 1.35525e-20 0.111396
-0.0197683 0 0.111404
-0.0198283 0 0.11142
-0.0197388 -1.35525e-20 0.111445
-0.0196539 0 0.111508
-0.0197831 0 0.111488
-0.0198447 0 0.111498
0.113578 0 0.00666074
0.0322092 0 0.109262
0.0511405 0 0.102094
0.0507775 -4.33681e-19 0.102531
-0.114165 4.33681e-19 0.00989877
-0.114708 0 0.0016754
0.114835 -4.33681e-19 0.000849152
0.0527008 -2.1684e-19 0.102434
0.0539343 0 0.102711
0.0510091 6.50521e-19 0.104226
0.0542576 1.0842e-19 0.1029
0.00866346 8.67362e-19 0.116531
-0.00813442 0 0.116649
0.0533187 3.25261e-19 0.104414
0.117703 -4.33681e-19 0.0134268
0.0243545 8.67362e-19 0.116163
-0.116704 0 0.0232834
-0.119064 0 0.0193726
0.0610898 -8.67362e-19 0.104043
0.0416551 8.67362e-19 0.113803
0.121295 0 0
0.121321 0 6.14248e-06
0.12137 6.77626e-21 0
0.121373 2.25875e-21 0.00252027
0.121429 0 0
-0.122507 0 0
-0.122533 6.50521e-19 7.07844e-05
-0.122882 0 0
-0.122883 0 0.00398503
0.064079 0 0.105101
0.12225 0 0.0146332
0.122283 0 0.0146366
0.122337 0 0.0146642
-0.123218 0 0
-0.123225 0 8.56715e-05
0.122422 0 0.0146785
0.064445 1.0842e-19 0.105292
0.123128 -4.51751e-21 0.0125447
0.0651888 0 0.105352
0.00149266 0 0.124291
0.0663232 -1.0842e-19 0.105687
0.0663364 -1.0842e-19 0.105881
-0.0199799 -1.35525e-20 0.123498
-0.0197045 5.96311e-19 0.123562
-0.0198916 0 0.123555
-0.0198223 0 0.123652
-0.0200161 1.35525e-20 0.123621
-0.0198901 0 0.123736
-0.0196768 2.43945e-19 0.123771
0.0166349 0 0.124281
-0.0199415 1.35525e-20 0.123815
0.064818 -3.61401e-20 0.107444
-0.12525 -6.77626e-21 0.0142145
0.0573201 8.67362e-19 0.114086
0.0323877 -2.71051e-20 0.123612
-0.125881 6.77626e-21 0.0277784
-0.125952 0 0.0278224
-0.126005 6.77626e-21 0.0278346
0.072535 -4.33681e-19 0.107441
-0.127356 -6.77626e-21 0.0249919
0.130261 4.33681e-19 0.00908994
0.129659 0 0.0169822
0.130817 4.33681e-19 0.00162317
-0.131264 0 0.00211156
0.0484574 -5.42101e-20 0.122385
-0.00760337 -4.33681e-19 0.131724
0.00919562 8.67362e-19 0.13163
-0.132124 -4.33681e-19 0.0100559
0.0244946 0 0.131479
0.0778716 0 0.109298
0.0779326 3.25261e-19 0.109494
-0.133149 8.67362e-19 0.0222073
0.0788766 -1.0842e-19 0.109597
-0.132267 4.33681e-19 0.0303529
0.0801537 0 0.110089
0.0801098 -4.33681e-19 0.110287
-0.0147993 0 0.135518
0.071423 4.33681e-19 0.116289
0.135315 0 0.0200291
0.135373 0 0.020051
0.0402991 1.73472e-18 0.130822
0.135459 6.77626e-21 0.0200798
0.0780214 0 0.11258
-0.0141346 0 0.13704
-0.0141608 -1.69407e-21 0.137038
-0.0141314 0 0.13707
-0.0127443 1.69407e-21 0.137217
0.136828 1.807e-21 0.016803
0.138728 -6.77626e-21 8.05679e-06
0.138767 -6.77626e-21 0
0.138808 0 1.00997e-05
0.138767 -3.38813e-21 0.00387315
0.0639079 -2.71051e-20 0.123344
0.00285256 0 0.138951
-0.139189 0 0
-0.139193 -2.71051e-20 4.19365e-05
-0.139353 0 0
-0.139356 -2.71051e-20 0.00449669
-0.139508 0 0
-0.139509 -2.71051e-20 4.45033e-05
-0.0736461 0 0.1185
-0.0736765 3.38813e-21 0.118505
-0.0736512 -2.71051e-19 0.11856
-0.0737242 3.38813e-21 0.118532
0.0170377 9.03502e-21 0.139454
-0.140488 -2.25875e-21 0.0169861
-0.137457 0 0.0340342
-0.137476 0 0.0340531
-0.137521 6.77626e-21 0.0340709
0.0560931 0 0.130714
-0.0630244 0 0.127609
-0.0630736 3.38813e-21 0.127587
-0.0630949 3.38813e-21 0.127604
-0.0630162 3.38813e-21 0.127654
-0.0630607 3.38813e-21 0.127642
-0.0631099 -5.6243e-19 0.127639
-0.0767264 -3.04932e-20 0.120268
-0.139458 -3.16226e-21 0.0306312
0.0323077 9.03502e-21 0.139267
-0.074725 3.38813e-21 0.122842
0.0895517 -8.67362e-19 0.113884
0.0855638 -8.67362e-19 0.118219
0.0481294 0 0.138624
0.14715 -4.33681e-19 0.00208459
0.146837 -4.33681e-19 0.0106817
-0.147274 4.33681e-19 0.0022809
-0.00627729 -4.33681e-19 0.147562
0.0789817 0 0.124875
-0.147614 0 0.0109443
-0.0700821 0 0.131069
0.00838968 -4.33681e-19 0.148422
0.147159 -1.73472e-18 0.0247926
0.0244717 0 0.147381
-0.147799 1.73472e-18 0.0243967
0.0717028 0 0.131591
0.151094 1.69407e-21 0
0.151094 -1.69407e-21 0.00430549
-0.057233 6.77626e-21 0.140466
-0.0572776 0 0.140507
-0.0572257 -6.77626e-21 0.140553
-0.0573568 -6.77626e-21 0.140503
-0.057305 0 0.140554
-0.0572765 0 0.140585
-0.0573563 7.65718e-19 0.140588
-0.0571969 6.77626e-21 0.14067
0.150513 0 0.0207855
0.0400398 -1.73472e-18 0.146987
0.0639055 -2.71051e-20 0.139001
-0.148229 -1.73472e-18 0.0394773
-0.0629095 -1.01644e-20 0.140043
0.0993584 0 0.118252
0.0993652 -5.42101e-19 0.118304
-0.0850603 4.33681e-19 0.129269
0.0996556 0 0.11839
0.0998498 2.71051e-20 0.118487
0.0998096 0 0.118542
-0.155096 0 0
-0.155097 0 2.49427e-05
0.155125 -1.69407e-21 3.59083e-06
-0.155183 0 0
0.155125 6.45439e-19 0.00444521
-0.155183 0 0.00465495
-0.155267 0 0
-0.155268 0 2.53063e-05
-0.00653262 0 0.155137
-0.00627198 0 0.155211
0.152881 0 0.0285262
-0.0064328 0 0.155391
-0.00627521 2.71051e-20 0.155524
-0.151629 0 0.0352588
-0.00633319 0 0.155633
0.155774 3.38813e-21 0.00813482
0.0977074 1.807e-20 0.121858
0.0170078 -4.51751e-21 0.155378
-0.155725 -6.77626e-21 0.0173219
0.0558552 8.67362e-19 0.146685
0.0881519 -4.33681e-19 0.131261
0.157555 -4.51751e-22 0.0159563
0.0321629 4.51751e-21 0.155317
0.155912 -1.69407e-21 0.0299959
-0.0548768 0 0.149218
0.156403 -8.47033e-22 0.0290841
-0.00451089 0 0.159143
-0.0785781 2.25875e-21 0.138603
-0.0552119 5.42101e-20 0.149932
-0.157017 -1.12938e-21 0.0302011
-0.0559665 -3.79471e-19 0.14991
0.157935 -1.50584e-21 0.0261526
-0.0554549 0 0.150228
-0.154087 0 0.0442871
-0.0553514 2.71051e-19 0.150814
-0.0560577 3.79471e-19 0.150709
-0.00370518 -2.71051e-20 0.160771
0.104857 4.33681e-19 0.121949
-0.00355413 6.77626e-20 0.160801
-0.00365117 1.35525e-20 0.1609
0.0790895 0 0.140173
-0.00370256 0 0.160946
-0.00355014 0 0.160964
-0.00374372 0 0.160985
0.0478442 -1.35525e-20 0.154893
-0.0701737 0 0.146593
-0.162958 0 0.00233059
-0.156524 0 0.0457885
-0.156532 0 0.0457937
0.163095 4.33681e-19 0.002272
-0.163155 0 0.0111415
-0.0539692 0 0.154439
0.0716371 0 0.147154
0.16372 -8.67362e-19 0.0109135
-0.0538443 2.71051e-20 0.155004
-0.15858 2.11758e-22 0.0426538
-0.0535845 5.42101e-20 0.155301
-0.0537542 2.71051e-20 0.155433
0.00797658 -4.33681e-19 0.164313
-0.0540687 -2.71051e-20 0.155367
-0.0534733 0 0.155608
-0.0539929 -2.71051e-20 0.155603
-0.0537653 2.71051e-20 0.155834
-0.053394 0 0.156002
-0.0541524 -2.98156e-19 0.15585
0.0244705 -4.33681e-19 0.163327
0.16221 8.67362e-19 0.0319512
-0.098625 0 0.132795
-0.0985096 0 0.132934
-0.163834 -4.33681e-19 0.0243829
0.164041 -8.67362e-19 0.0234822
-0.0989761 0 0.133011
-0.0986386 0 0.133385
-0.0991553 -2.71051e-20 0.133124
0.110561 0 0.123997
-0.0990824 -4.60786e-19 0.133394
0.110523 -5.42101e-20 0.1241
0.110851 0 0.124143
0.111287 0 0.124399
0.111236 1.0842e-19 0.124461
0.0637087 9.03502e-21 0.154625
0.102865 4.33681e-19 0.132674
0.10895 0 0.127735
0.0398963 8.67362e-19 0.163197
-0.164308 -8.67362e-19 0.0382154
0.0946646 -5.42101e-20 0.140304
-0.162327 -4.33681e-19 0.0480596
-0.0884744 4.33681e-19 0.144452
-9.71046e-06 4.23516e-22 0.169664
0.000166543 0 0.170088
0.000408699 0 0.170103
-0.17072 0 0
-0.170773 -6.77626e-21 0
-0.170825 -6.77626e-21 1.56697e-05
-0.170773 -4.51751e-21 0.00468902
0.166965 0 0.0361826
0.166999 -6.77626e-21 0.0362002
0.170934 -6.77626e-21 1.58986e-05
0.167055 0 0.0362229
0.170989 6.77626e-21 0
0.171045 0 0
0.17099 0 0.004644
0.0872301 0 0.147557
0.017467 -4.51751e-21 0.170707
0.000835171 0 0.17191
-0.171009 0 0.0176594
0.0556436 -8.67362e-19 0.162903
0.169303 0 0.0322672
0.169333 5.29396e-23 0.0321454
0.169317 5.29396e-23 0.0322427
0.169429 -2.11758e-21 0.0322323
0.171598 -2.25875e-21 0.0176964
-0.0795497 -1.35525e-20 0.15453
0.170942 2.64698e-23 0.0332669
0.0321247 -9.03502e-21 0.171253
-0.0577178 0 0.164416
-0.166326 0 0.0526363
-0.166351 0 0.0526567
-0.171769 1.05879e-22 0.0315344
0.0793992 -6.77626e-21 0.155604
-0.169068 1.69407e-21 0.0488654
-0.169064 0 0.0488981
0.120034 0 0.129853
-0.0713441 8.67362e-19 0.162074
0.11611 8.67362e-19 0.134549
0.047662 -1.35525e-20 0.17122
0.0714249 8.67362e-19 0.162922
[...]
POINT_DATA 28504
FIELD attributes 1
U 3 28504 float
12.7768 0 0
6.88572 0 0
16.0443 0 0
13.3933 0.614331 -1.61079
11.1014 0 0
10.7467 0 0
11.0509 -0.0932097 0.0823245
11.2536 0 0
16.394 -1.26533 -3.92051
20 0 0
19.1258 0.368808 -0.967025
20 0 0
20 0 0
19.3586 0.364591 -0.445827
19.4779 0.297125 -0.0466084
0 0 0
2.17488 0.200694 -0.526225
0 0 0
1.62283 0.191786 -0.234519
0 0 0
1.31368 0.209149 -0.474293
4.57139 0 0
13.472 -0.526614 3.83562
16.6605 -0.696715 -2.35025
17.4188 -0.709237 -0.2433
0 0 0
0 0 0
0 0 0
0.0494308 0.00353688 -0.00203648
0.0605551 0.0126654 -0.0135715
0 0 0
0 0 0
0 0 0
0.0944047 0.00675486 -0.00388934
0.0999435 -0.0132709 0.0127673
19.9975 -0.00187093 0.00121413
19.1714 0 0
14.1933 -0.688019 -5.01028
0 0 0
0 0 0
0.110446 0.0231004 -0.0247529
0 0 0
0.143993 0.0362666 -0.0365046
0 0 0
20 0 0
19.4692 -0.0458877 0.154882
1.84534 -0.503795 -0.0863658
1.71353 -0.174875 -0.26866
0 0 0
0 0 0
20 0 0
0.14855 -0.102819 -0.00107972
0 0 0
0.15138 -0.186596 0.0071812
19.7543 0.13982 -0.0219328
20 0 0
2.43526 -1.04052 0.137993
17.035 -0.669731 -1.41183
0 0 0
20 0 0
0.577678 0.0919715 -0.208567
19.7692 0.120565 -0.0329828
0 0 0
0 0 0
0.567945 0.0941448 -0.234466
0 0 0
15.5735 -0.682351 -4.28517
0.19848 0.0502021 0.0630905
0 0 0
0.15381 0.0382086 0.0420789
0 0 0
0.152304 0.0304712 0.0372357
2.09834 -2.13748 0.227049
2.52957 -0.547206 0.218393
3.22554 -0.928072 0.321269
0 0 0
0 0 0
0.0084595 -0.00726608 5.88917e-05
0.0169944 9.89926e-05 0.00528488
0 0 0
0.0250153 -0.000897135 -0.00347086
0.0434381 -0.0046394 0.00025301
0.0422363 -0.00311602 0.000460035
0 0 0
12.9363 -0.602025 3.1932
3.37254 -1.52139 0.375757
0 0 0
0.299091 -0.368668 0.0141883
16.629 -0.590394 -3.12242
17.2746 -0.610972 -0.41375
13.9862 -0.510118 1.12658
0 0 0
0 0 0
0.821779 -0.263039 0.00682414
0.462393 -0.622662 0.201843
3.65604 -0.850518 0.608672
3.29665 -0.657387 0.684929
1.03525 -0.393085 0.0211842
12.8013 -0.510751 3.05451
4.62841 -1.19565 0.590844
15.0445 -0.635524 -6.07023
15.9974 -0.672331 -4.74176
2.16032 -3.24754 0.77472
4.27923 -1.67564 0.54229
20 0 0
19.9493 0.024284 0.00796269
20 0 0
13.0592 -0.575937 2.02397
19.9589 0.0167727 0.00383864
20 0 0
19.8799 0.062753 -0.0171672
20 0 0
16.9911 -0.56256 -1.42443
0 0 0
0 0 0
0.126357 0.02528 0.030892
0 0 0
20 0 0
19.8836 0.050009 -0.0188008
0.0949521 0.00988376 0.0297166
0.431256 -0.580732 0.188251
12.275 -0.545421 3.2798
0 0 0
4.21421 -1.21979 0.1497
0 0 0
0.536306 -0.627033 0.188329
0 0 0
0.0628508 -0.00671279 0.000366082
0.0611468 -0.00451116 0.000666007
0.0544338 -0.00772108 -0.0128351
0 0 0
0.0920019 -0.0328621 -0.0350521
0.0975865 -0.0333153 -0.0269985
5.16031 -1.58701 0.0962638
0 0 0
3.95863 -3.44954 0.670653
16.3584 -0.601332 -3.52465
5.24496 -2.56788 0.409084
5.96295 -1.98359 0.033243
0.093144 0.0154399 -0.0384528
0 0 0
0.0791834 0.0138421 -0.0371601
3.25646 -4.44738 0.907135
15.4014 -0.614416 -5.44112
11.7498 -0.791141 3.29446
11.7054 -0.342742 3.57576
13.2256 -0.43672 0.766104
17.2306 -0.496388 -0.467173
6.52527 -2.51914 0.0276834
4.40722 -1.41293 -0.322101
5.42263 -1.91242 -0.33683
16.7396 -0.544967 -2.00216
6.87168 -2.34315 -0.440482
0 0 0
0.499205 -0.583656 0.175301
16.0613 -0.565454 -4.31088
0 0 0
14.5102 -0.562406 -6.68484
0 0 0
0.495045 -0.433044 0.237486
0 0 0
6.46226 -3.56124 0.515786
0.0750711 0.0078143 0.0234946
0 0 0
7.82971 -2.67082 -0.487392
0.0566325 0.00260093 0.0236982
5.25941 -4.29724 1.05927
0.00365479 -0.000906291 0.00233084
0.00117286 0.000222025 2.33092e-05
0.00325767 0.000936063 0.00249297
0.463228 -0.150954 -0.00445078
12.0932 -0.516228 3.72669
19.9732 0.0109387 0.00250346
20 0 0
19.9734 0.0102678 0.00207097
12.9048 -0.564151 1.78854
7.57263 -3.28904 0.138509
5.68336 -1.85827 -0.0832095
20 0 0
19.943 0.0244796 -0.00920307
20 0 0
16.9121 -0.489138 -1.14654
20 0 0
19.9413 0.01992 -0.00690306
0.00494359 -0.000194543 -0.000387621
0 0 0
0.0133963 -0.0075143 -0.00758188
0.0115098 -0.00282987 -0.00721358
6.78939 -2.48217 -0.273273
16.3093 -0.528524 -3.19701
0.0460474 0.0080496 -0.0216097
0 0 0
0.0432936 0.00783565 -0.0225717
8.78303 -3.19983 -0.35473
0 0 0
0.00257908 0.000796191 -0.000779918
0.00584744 -0.000100911 -0.00127426
0 0 0
0.00572609 -0.00115799 -0.00492043
0.0108598 -0.00609155 -0.00614633
0 0 0
15.1213 -0.553045 -5.76261
7.96429 -2.9372 -0.396455
0.661652 -0.315582 -0.358872
4.21755 -5.10217 1.48418
7.29968 -4.38249 1.45772
8.88323 -3.30689 -0.372383
13.564 -0.38256 0.609703
12.9904 -0.682865 2.7291
17.0642 -0.448696 -0.35395
6.07567 -1.57851 0.321128
8.42378 -4.03543 0.692471
16.5554 -0.461333 -1.91773
3.09661 -2.09841 -1.60764
6.78024 -2.48614 -0.0119328
10.9185 -0.305362 4.29693
8.07155 -3.17986 -0.300616
15.8911 -0.535874 -4.53573
9.95101 -3.85255 -0.0369724
20 0 0
13.4277 -0.515418 1.56474
0 0 0
0.00921475 -0.0018635 -0.00791823
0 0 0
0.0174763 -0.00980288 -0.00989105
0.0151716 -0.00321391 -0.00747076
0.0184992 -0.012633 -0.0126515
0.0210059 -0.0108541 -0.0117589
0 0 0
13.394 -0.538771 5.11969
9.08262 -3.54665 -0.364953
9.65913 -3.70433 -0.142121
14.1575 -0.558392 -7.25946
0.810769 -0.386705 -0.439751
0 0 0
0.113297 -0.0991072 0.0543515
2.6106 -0.903309 -1.50287
0 0 0
0 0 0
0.207802 -0.158775 0.0810913
20 0 0
19.9671 0.0111646 -0.00386896
19.9947 -0.00331305 0.000601532
20 0 0
13.5985 -0.499105 1.49183
16.7967 -0.430396 -0.994356
20 0 0
19.9665 0.00940802 -0.0032675
0 0 0
0.0558043 0.0160349 0.0427049
0 0 0
0 0 0
0.0308654 0.0157127 0.0180919
15.0136 -0.537092 -5.99606
0 0 0
13.5114 -0.527481 2.2693
7.33736 -5.05234 1.49121
7.36124 -3.31549 -0.122812
16.3058 -0.464313 -2.73046
9.84576 -3.8209 -0.275968
9.95536 -4.30875 0.794596
13.362 -0.587513 3.89438
8.18219 -3.63726 -0.148247
0.010357 -0.000186349 0.00477693
0 0 0
2.88003 -0.0834438 1.26509
0 0 0
3.06123 -1.46465 -1.65735
0.172977 -0.118125 -0.118298
15.5517 -0.502826 -4.74028
0.195415 -0.100974 -0.109391
12.1037 -0.344431 5.31735
0.16794 -0.0761827 -0.0818028
0 0 0
0.252287 -0.251595 -0.113312
0.283892 -0.183929 -0.169424
0.109107 -0.0430012 -0.0133134
5.94106 -6.12475 1.95797
0.0954349 -0.0391843 -0.0138965
0.0516807 -0.0229696 -0.0103209
10.0025 -4.03047 0.349249
0.0983377 -0.0614271 -0.0146567
0.0969044 -0.0585909 -0.0144736
0 0 0
8.69081 -3.71522 -0.0506806
3.63803 -2.14858 -1.82672
16.9701 -0.395644 -0.300137
0.00568479 -0.00145765 -0.00296822
0.00652166 -0.00165959 -0.00357326
13.8931 -0.359628 0.555519
16.5385 -0.417078 -1.578
0 0 0
10.0398 -3.943 0.09849
13.9272 -0.605125 2.3442
0 0 0
13.7084 -0.497324 -6.29898
0 0 0
0.0428809 0.0309809 -0.0480305
6.95257 -3.69876 -0.154312
0.0982709 -0.0671085 -0.0672068
0 0 0
0.0907697 -0.0333383 -0.0387257
0.0777429 -0.0373077 0.00411985
0 0 0
0.143728 -0.143334 -0.0645539
7.64648 -3.9503 -0.0409578
11.1297 0.00216037 6.13886
0 0 0
0.0502775 -0.0282442 -0.023414
16.2142 -0.445366 -2.99585
12.9069 -0.559582 5.41025
0 0 0
0.0585804 -0.0222245 -0.0281544
0 0 0
0 0 0
0.0358564 -0.0109666 -0.0269078
0.332977 -0.254416 0.129938
0 0 0
0 0 0
0.317452 -0.152289 0.17157
8.80256 -3.66682 0.198412
10.278 -4.588 1.48399
8.33538 -5.36035 2.43738
7.96917 -3.87971 0.102573
15.1199 -0.492622 -5.3915
10.0287 -4.25865 1.07707
13.4675 -0.516606 -7.80044
2.8703 -0.707733 -1.66949
0 0 0
0.00122079 -0.00020225 0.000426127
0.0853168 -0.0401504 0.00570208
19.9855 0.00407264 -0.00141447
20 0 0
19.9837 0.0038673 -0.00128422
16.7408 -0.383318 -0.831524
0.0466524 0.00168111 0.024525
0 0 0
19.971 -0.0174338 0.00317926
0.0446396 0.00347346 0.0271644
20 0 0
19.9751 -0.0138351 0.0025421
14.1235 -0.467183 1.30942
10.0525 -4.0467 0.570001
6.23647 -2.96029 0.382473
0 0 0
16.3339 -0.409368 -2.14306
7.87717 -3.62358 0.33755
12.1711 -0.300195 6.0345
12.2577 -0.303885 6.05631
12.2471 -0.302023 6.07218
12.256 -0.303326 6.07073
13.8253 -0.586573 3.69978
3.83363 -1.98793 -2.15919
12.2135 -0.29347 6.19258
6.533 -2.96518 0.485037
5.23742 -4.91972 -2.15037
0.0223348 -0.005646 -0.0127375
0.0281818 -0.00654073 -0.0176473
15.5972 -0.453569 -4.13805
8.61777 -3.55672 0.598786
14.0477 -0.506628 -6.88692
14.0458 -0.508062 -6.88971
7.5889 -5.62861 3.32744
4.94668 -3.35128 -2.72394
10.097 -4.91872 3.45409
6.56493 -2.79465 0.624334
7.38796 -3.27139 0.648235
16.9108 -0.352736 -0.24595
2.30896 -0.50686 -1.78649
14.2055 -0.352725 0.501703
0 0 0
10.0218 -4.46724 2.41842
0 0 0
0.0143315 -0.00438325 -0.0107548
16.4867 -0.370178 -1.35722
0 0 0
0.0139483 -0.00441557 -0.0113515
14.4985 -0.581165 2.03102
0 0 0
0.119186 -0.0571958 0.00631606
9.81665 -4.10088 1.47743
0.220207 -0.219603 -0.0989035
0 0 0
5.10846 -2.07594 0.846646
0.129884 -0.088482 -0.0362741
0.11872 -0.0544272 0.150873
16.0876 -0.404222 -2.65541
0 0 0
14.0011 -0.608539 4.93284
0.189099 -0.237381 -0.0683254
3.11071 -1.05011 -2.02413
10.6893 -0.00778357 6.77074
5.12818 -2.04732 0.915729
8.44254 -3.48112 1.17754
6.27758 -2.55124 0.786086
15.0017 -0.475074 -5.51576
5.29527 -1.92294 0.995485
0 0 0
3.88224 -1.66616 -2.43278
4.79345 -4.50837 -2.2466
7.05005 -2.988 1.06389
12.9565 -0.447348 7.24113
13.0766 -0.535197 -8.3413
19.9899 0.00239205 -0.000794332
20 0 0
19.9887 0.00235803 -0.000693701
16.7037 -0.342298 -0.70113
20 0 0
19.9473 -0.0292865 0.00538117
20 0 0
14.5623 -0.445381 1.14638
20 0 0
19.9508 -0.0258986 0.00490372
0 0 0
0.60504 -0.290251 0.326999
16.3148 -0.365676 -1.79098
5.13208 -1.76188 1.06068
14.5524 -0.57861 3.24754
0 0 0
5.85405 -2.27806 0.994519
13.8389 -0.517331 -6.95654
15.8306 -0.397558 -3.10715
9.24877 -4.72122 4.27532
15.7064 -0.405823 -3.44477
0 0 0
0.827097 -0.290883 0.610723
4.42004 -3.50193 -2.71238
2.56137 -0.478408 -2.13521
0 0 0
0.0349435 -0.0205867 0.000898191
0 0 0
9.89747 -4.2553 3.30466
0.00753819 -0.00464161 0.00344537
0 0 0
4.3346 -5.05319 -1.35131
2.47643 -0.602716 -1.95984
4.30342 -0.65884 1.52802
13.7602 -0.530459 5.82368
8.35737 -3.44975 2.18952
0.0397705 0.00309459 0.0242014
0 0 0
0.0385802 0.00873794 0.0313723
2.90334 -0.748957 -2.09847
4.7052 -1.54421 1.1012
6.84636 -2.79307 1.59967
14.655 -0.454947 -5.44765
11.8555 -0.202246 7.47436
4.43905 -0.555133 1.53578
0.211513 -0.124611 0.00543675
0.165661 -0.0887685 0.00754574
4.65905 -4.74436 -2.6678
0.057107 -0.027881 -0.00018387
16.8696 -0.315504 -0.194843
0.0459621 -0.028301 0.0210073
0.0709044 0.00427571 0.0455463
0 0 0
16.4918 -0.333375 -1.148
14.5979 -0.343396 0.462403
0.000674853 -0.000563427 0.000426614
0.0383281 -0.0088956 -0.0240009
0 0 0
14.9904 -0.53488 1.77874
0.0386544 -0.0120359 -0.0274313
3.54401 -2.19668 -2.58176
16.1897 -0.356102 -2.01426
5.57148 -2.04599 1.2809
13.1864 -0.488135 -7.37273
14.6941 -0.596206 4.35385
3.16767 0.626137 2.14391
4.33552 -0.553133 1.48149
15.5297 -0.388289 -3.62935
4.23721 -1.28173 1.17497
8.92593 -4.76135 5.86372
4.21861 -4.17101 -3.00854
13.3769 -0.483111 6.78459
3.57455 0.780862 2.092
9.71201 -4.07238 5.29401
3.0796 -3.95544 -1.17714
0 0 0
0.120169 -0.016661 -0.101058
8.69601 -3.47019 3.87283
0 0 0
0.113809 -0.0283827 -0.104962
0 0 0
0.0868703 -0.0288092 -0.0929316
7.01668 -2.72107 2.45525
2.31762 -0.700493 -2.03008
19.9925 0.00156402 -0.000460114
20 0 0
19.9917 0.00168569 -0.000461519
16.7069 -0.308383 -0.605439
20 0 0
19.9408 -0.0311735 0.00590249
0 0 0
14.2631 -0.438243 -5.67356
20 0 0
0.0406018 -0.0250004 0.0185573
14.9934 -0.423733 1.02719
0.0626539 0.00377819 0.0402466
20 0 0
19.9457 -0.0278041 0.00526467
0 0 0
0.0264311 -0.00406015 0.00775771
0.00645441 -0.016456 0.0109846
16.3778 -0.32801 -1.43552
16.3776 -0.328218 -1.43616
0.0739776 0.0416559 0.0507969
0 0 0
9.86388 0.347783 8.22087
4.05188 -0.505699 1.38906
3.78026 0.639641 1.97971
15.0447 -0.558091 2.93533
16.0741 -0.344478 -2.15602
5.56631 -1.8777 1.71037
2.72617 -1.23666 -2.35633
3.44031 -4.59621 -2.3447
1.09297 -1.5872 0.863901
15.9037 -0.353669 -2.56024
0 0 0
14.2899 -0.546582 5.32966
4.20792 1.53958 1.92078
12.0017 -0.33916 8.62457
11.8154 -0.464493 -8.53637
3.16821 -2.16548 -2.78686
4.17369 -1.14743 1.28185
3.73086 0.433084 1.77809
8.37342e-05 0.000125782 -0.000166226
7.6697e-05 7.59142e-05 -2.41569e-05
0.0066793 -0.00595815 0.00143666
0 0 0
15.0994 -0.389251 -4.10057
2.16978 -4.23056 -1.34646
1.28215 -0.450922 0.946734
0 0 0
12.8439 -0.490781 -7.41674
4.59558 1.58317 1.96919
3.16876 -4.01067 -2.65937
12.7746 -0.410984 7.60906
4.05179 -0.431611 1.38222
16.8749 -0.28414 -0.177244
16.5393 -0.303796 -1.03335
15.0339 -0.328634 0.415986
0 0 0
8.67502 -3.47909 5.76527
15.4019 -0.515681 1.61514
8.24305 -2.85227 4.53509
16.2888 -0.320522 -1.55004
15.0826 -0.594006 4.05515
0 0 0
1.30582 -0.293523 1.14891
4.75559 2.31197 1.62126
1.79487 -0.76076 -1.92425
0 0 0
0.0456624 0.010342 0.0371314
6.07155 -1.78907 2.73565
0 0 0
0.0600051 0.013483 0.0550984
13.8585 -0.438279 -5.87069
4.64547 1.41303 1.96945
2.69877 -5.20786 -2.33789
3.53977 0.374788 1.5126
15.5886 -0.350069 -3.07791
1.02365 -0.91543 0.21526
10.8204 0.0277239 8.74279
4.27274 -0.875531 1.53009
2.0333 -0.865798 -2.10275
2.47863 -1.24309 -2.46762
13.988 -0.513457 6.17168
5.32455 2.46911 1.82469
0.0506156 -0.0157603 -0.0359196
0 0 0
0.0513028 -0.0173237 -0.0401501
0.00755923 -0.0192728 0.0128649
0 0 0
0.0865885 0.048757 0.0594562
0 0 0
2.56141 -2.70164 -2.60058
0.0437097 0.0284053 0.113613
-0.0063642 0.0700109 0.0151043
3.85101 -0.212355 1.39297
0 0 0
0.0183797 0.0382156 -1.09228e-05
0.0522621 -0.0660065 0.00964353
0.0970178 0.144781 -0.0706087
0.0119905 0.08012 -0.00347212
0 0 0
0 0 0
19.9971 0.000581053 -0.000161268
16.7283 -0.285194 -0.560804
12.155 -0.467177 -7.64003
14.9576 -0.386366 -4.14371
-0.257129 2.55139 0.615187
20 0 0
19.9411 -0.0301678 0.00571223
1.69171 -3.27816 -0.920731
20 0 0
15.4368 -0.411202 0.915545
20 0 0
19.9468 -0.0273225 0.00488019
4.37887 1.20599 1.86795
11.7157 -0.323136 8.85422
16.4088 -0.305749 -1.29417
15.4876 -0.548922 2.66959
9.7637 0.426487 9.0892
5.66383 2.41325 1.99235
0 0 0
2.50199 -4.31653 -2.60802
15.9966 -0.3187 -2.14444
3.50648 0.417332 1.39778
14.8162 -0.558547 4.81488
0.21269 0.347083 -0.448777
5.46604 1.42946 1.70363
0 0 0
0.612723 1.00626 -0.441953
8.28251 -3.28798 6.68214
8.23723 -2.45335 6.30872
0.433351 0.734348 -0.610519
13.3983 -0.439791 -6.21141
6.94616 -1.73804 4.56205
0 0 0
1.04164 -0.309974 0.707471
15.3986 -0.346292 -3.23791
5.3805 2.14404 2.12726
4.8819 -0.760252 2.55335
1.85678 -0.884412 -2.33175
0 0 0
0.121155 0.0272232 0.111248
1.78961 -4.32745 -1.80614
0 0 0
0 0 0
0.106779 0.0232607 0.117228
4.06479 1.10698 1.70398
13.2238 -0.44148 7.15528
0 0 0
0.0413936 -0.026118 -0.0445919
6.08999 1.80771 1.94888
0 0 0
0.0438966 -0.0341747 -0.0505763
0.0169822 -0.0165992 -0.0163246
0 0 0
3.96847 0.116751 1.75098
10.6342 -0.0190496 9.22142
15.4968 -0.325271 0.356254
1.95545 -1.67695 -2.47
15.8663 -0.50278 1.4265
10.7649 -0.477133 -8.59666
15.6015 -0.587768 3.56837
14.4992 -0.386308 -4.50978
3.44744 0.786693 1.37733
2.04835 -2.83591 -2.55078
0.826422 -3.27433 -0.650988
5.58085 0.0248847 1.48178
4.86722 1.87123 2.05675
0.831153 1.6828 0.477948
6.51592 1.98876 2.14744
15.8303 -0.306412 -2.39868
11.8809 -0.481972 -7.51682
14.6065 -0.544053 5.45901
3.7617 5.99062 -4.00704
1.69005 -3.83708 -2.12693
3.76453 1.2085 1.55824
1.14604 -0.257608 1.00834
0 0 0
6.1436 0.756287 1.85756
7.34923 -1.7349 6.28575
12.5953 -0.39469 8.13227
0.469409 3.32912 -0.279324
1.35434 -0.591222 0.417987
15.2196 -0.343035 -3.32353
0 0 0
13.0938 -0.43545 -6.08143
6.43132 -0.869778 4.89011
0.0168761 -0.0131385 -0.0194441
6.45823 1.96791 2.27384
0 0 0
0.00649161 -0.00634519 -0.00624024
0.00724458 -0.0060055 -0.00820153
0.0190337 -0.0234091 -0.027609
20 0 0
19.9462 -0.0276101 0.00493155
0.0163945 -0.0214667 -0.0258014
20 0 0
15.8826 -0.407376 0.774307
20 0 0
19.9513 -0.0259588 0.00403757
16.5615 -0.278667 -0.950775
1.10928 -4.47948 -1.6034
0.911104 -0.0119037 0.957269
0 0 0
0 0 0
9.05977 0.355975 9.96515
16.9032 -0.259047 -0.180732
15.9116 -0.553703 2.37814
4.35356 1.7639 1.85545
4.49231 0.335007 2.84872
0 0 0
0.0730351 -0.0922427 0.0134766
7.20924 1.5362 2.12009
0 0 0
15.2921 -0.584559 4.34802
-0.0517251 -0.0562377 -0.0377647
16.0889 -0.286955 -1.87131
0 0 0
1.69169 -1.67246 -2.75682
3.27963 1.29477 1.56731
20 0 0
0.0717761 -0.024237 -0.0561727
0 0 0
0.0923495 -0.0377088 -0.0780508
14.3468 -0.381848 -4.47747
10.7519 -0.408978 9.97046
1.90219 1.35079 0.90352
0 0 0
15.6651 -0.307219 -2.55905
1.25826 -2.55069 -0.432306
0.152214 0.227151 -0.11078
0.305776 0.126855 -0.0202169
0 0 0
0.12936 0.120962 -0.0690231
3.41127 1.56582 1.50475
11.237 -0.483976 -7.60292
1.42529 -2.81366 -2.29931
0.315318 0.256703 -0.162141
0.234246 0.32256 -0.164268
0 0 0
0 0 0
6.11893 1.93936 2.26759
0.874788 1.43664 -0.630979
13.9761 -0.501703 6.41026
7.76005 1.85876 2.35183
0.0028024 -0.00137616 -0.00458555
0.0866468 -0.109434 0.0159883
0.13497 -0.0208226 0.0568474
0.0282048 -0.00494123 -0.0079702
3.1498 5.16718 -2.31339
-0.0614972 -0.0668624 -0.0448994
0 0 0
-0.0635177 -0.123929 0.0101234
1.10258 -3.72309 -1.74345
3.77585 1.87783 1.62221
15.94 -0.325372 0.296103
5.13078 0.0726395 2.00633
16.2783 -0.505084 1.1581
14.975 -0.340371 -3.49024
1.66199 -0.193545 0.681443
12.7967 -0.442778 -6.07057
0 0 0
12.0705 -0.42827 8.6442
15.9012 -0.623604 3.36685
0 0 0
0.129931 0.0283042 0.142646
2.11192 2.74479 0.040118
7.78669 1.99171 2.55613
0 0 0
16.7759 -0.250244 -0.487987
0 0 0
6.39722 -0.438456 6.35072
0.119444 0.023951 0.15974
7.24609 -1.44031 7.09251
5.18337 0.419713 4.51519
16.0477 -0.274048 -1.92781
1.23056 -3.59617 -1.25752
1.61806 -1.3423 -2.75603
15.0516 -0.585989 5.02502
5.56573 2.03957 2.13908
6.40945 0.88834 2.42132
3.51928 1.5876 2.56224
9.84118 -0.182116 10.2114
9.72071 -0.524834 -8.42414
1.28268 -2.01637 -2.50498
3.01453 2.03753 1.765
2.18398 1.16361 0.68152
13.9858 -0.380848 -4.60018
5.6151 8.07057 -4.81722
15.5728 -0.304276 -2.56251
13.5452 -0.483376 7.16131
2.64605 -1.73726 1.63113
19.9981 -0.000662562 -0.000102907
7.3649 1.37703 2.70819
7.44655 2.12825 2.59816
20 0 0
19.9541 -0.0244903 0.00380918
20 0 0
3.08388 2.33395 1.41361
16.6351 -0.404803 0.72992
0.885649 -2.93984 -2.1783
19.9921 -0.0114813 0.000937943
11.0681 -0.501619 -7.40331
3.09299 3.84138 -0.807421
16.4055 -0.537593 2.08808
16.3058 -0.259475 -1.42359
15.7759 -0.58595 3.86147
4.74856 2.30994 1.92963
11.418 -0.43514 9.28695
0 0 0
0.690449 0.562099 -0.355039
0.877517 -3.08757 -1.52454
0.511283 0.704044 -0.358544
14.7579 -0.334324 -3.59915
1.90665 -0.135812 0.598691
4.37981 -0.342188 2.40575
0 0 0
0.337624 0.400533 -0.280752
0 0 0
2.84993 2.4761 0.328826
-0.0684717 -0.0744454 -0.0499915
0.827896 0.815807 -0.595444
12.5104 -0.439413 -5.94798
-0.0706848 -0.137912 0.0112656
0 0 0
15.8989 -0.279502 -2.09275
0.542966 0.971505 -0.501149
0 0 0
0 0 0
7.83786 1.76216 2.87258
0 0 0
0 0 0
8.45272 0.209948 11.1213
14.5879 -0.570324 5.7094
1.98996 2.99769 -1.4061
0.427524 -0.00558565 0.449186
0 0 0
5.68774 0.302474 6.21654
0 0 0
6.16088 0.446727 2.79462
0.0118912 -0.0155701 -0.0187142
0 0 0
0.00083013 -0.00266617 -0.00180281
0.00691097 -0.0221963 -0.0150087
0 0 0
0.00569857 -0.0241521 -0.0138424
4.42587 1.3831 4.34548
0.315116 0.12695 0.377354
0 0 0
6.69371 2.3885 2.48398
4.6349 6.97852 -3.28955
2.94718 2.28987 2.64002
0 0 0
0.0994855 -0.0406226 -0.0840819
0 0 0
0 0 0
0.0965803 -0.038915 -0.0969791
2.3208 0.999332 0.792311
9.71527 -0.655173 10.6172
13.95 -0.371705 -4.36881
15.3308 -0.301669 -2.79734
12.9908 -0.521648 7.65963
0.962328 -2.06089 -2.34115
2.1778 2.9255 1.5356
3.50011 3.90812 -0.831701
7.69534 1.20188 3.12528
1.65097 -1.88934 0.147989
10.1726 -0.499911 -7.61048
7.79511 2.10061 2.87771
3.60955 2.81606 1.72992
15.5164 -0.625005 4.39396
0.584094 -2.74272 -1.93235
-0.0711583 -0.138836 0.0113411
0.062237 -0.0152481 0.0757855
0 0 0
0 0 0
-0.029038 -0.0804878 -0.0146475
14.6181 -0.3303 -3.55805
0 0 0
11.0939 -0.59953 9.53475
3.10855 2.34838 0.195576
5.73611 10.8645 -5.56434
3.05928 -0.91448 1.78743
0.261855 -3.18864 -1.47329
0 0 0
0.115746 0.0232095 0.154795
5.45108 2.74328 2.18279
12.2295 -0.449354 -5.96107
0 0 0
0 0 0
0.112718 0.023464 0.163297
14.2433 -0.599776 6.25669
8.38868 1.72341 3.21549
8.4314 -0.523861 -8.64778
4.94559 0.15569 2.43669
4.14626 5.62816 -2.30281
16.9531 -0.213769 -0.138793
9.04351 -0.37372 10.7997
16.6738 -0.224139 -0.733197
17.4778 -0.453681 1.48519