# vtk DataFile Version 2.0
track0
ASCII
DATASET POLYDATA
POINTS 19196 float
-1.001 -0.05 0.316889
-1.0008 -0.0500006 0.316891
-1.00059 -0.0500012 0.316892
-1.00039 -0.0500018 0.316893
-1.00019 -0.0500024 0.316894
-0.999982 -0.050003 0.316895
-0.987481 -0.05004 0.316959
-0.97498 -0.0500789 0.317025
-0.962479 -0.0501187 0.317091
-0.949978 -0.0501594 0.317157
-0.937477 -0.050201 0.317224
-0.924975 -0.0502422 0.317291
-0.912473 -0.0502855 0.317358
-0.89997 -0.0503306 0.317426
-0.887468 -0.0503775 0.317494
-0.874966 -0.0504262 0.317563
-0.862462 -0.0504751 0.317633
-0.849959 -0.0505253 0.317702
-0.837455 -0.0505783 0.317773
-0.824951 -0.0506339 0.317843
-0.812448 -0.0506922 0.317914
-0.79995 -0.0507525 0.317985
-0.787453 -0.0508164 0.318056
-0.774955 -0.0508841 0.318127
-0.762458 -0.0509557 0.318199
-0.749961 -0.0510311 0.318271
-0.737547 -0.0511072 0.318342
-0.725134 -0.0511853 0.318413
-0.712721 -0.0512688 0.318483
-0.700308 -0.0513578 0.318554
-0.687895 -0.0514524 0.318624
-0.681925 -0.0515004 0.318657
-0.675955 -0.0515503 0.31869
-0.669984 -0.0516022 0.318723
-0.664014 -0.0516561 0.318756
-0.657983 -0.0517126 0.318789
-0.651787 -0.0517728 0.318823
-0.64559 -0.0518351 0.318856
-0.639394 -0.0518996 0.318889
-0.633198 -0.0519663 0.318922
-0.627001 -0.0520339 0.318955
-0.61425 -0.0521742 0.319022
-0.601499 -0.0523206 0.319088
-0.588748 -0.0524823 0.319153
-0.575997 -0.0526595 0.319217
-0.563245 -0.0528524 0.319279
-0.550725 -0.0530535 0.31934
-0.538206 -0.0532765 0.319401
-0.525687 -0.0535261 0.319459
-0.513168 -0.0538024 0.319514
-0.500645 -0.0541061 0.319567
-0.488224 -0.0544254 0.31962
-0.475804 -0.0547892 0.319674
-0.463386 -0.0552105 0.319725
-0.45097 -0.0556904 0.319773
-0.438537 -0.0562314 0.319818
-0.432347 -0.0565336 0.319843
-0.426157 -0.0568492 0.319871
-0.419968 -0.0571939 0.319898
-0.413781 -0.0575689 0.319925
-0.407583 -0.0579754 0.319951
-0.401362 -0.0584178 0.319973
-0.395145 -0.0589066 0.32
-0.388933 -0.0594496 0.320027
-0.382725 -0.0600473 0.320051
-0.376477 -0.060705 0.320076
-0.372036 -0.0612117 0.320095
-0.3676 -0.0617648 0.320117
-0.363172 -0.0623677 0.320141
-0.358751 -0.0630295 0.320166
-0.357614 -0.0632138 0.320173
-0.355124 -0.063625 0.320187
-0.352636 -0.0640506 0.320201
-0.350151 -0.0644906 0.320214
-0.347669 -0.064945 0.320227
-0.345162 -0.0654187 0.32024
-0.338842 -0.0666504 0.320274
-0.332544 -0.0679947 0.320302
-0.326278 -0.0694758 0.320328
-0.320044 -0.0710897 0.320345
-0.313555 -0.0729003 0.320351
-0.310348 -0.0738445 0.320349
-0.307141 -0.0747875 0.320345
-0.303937 -0.0757404 0.320339
-0.300738 -0.0767124 0.32033
-0.297519 -0.07771 0.320318
-0.296818 -0.0779356 0.320315
-0.296116 -0.0781619 0.320311
-0.295415 -0.0783879 0.320307
-0.294714 -0.0786132 0.320303
-0.294011 -0.0788381 0.320298
-0.291611 -0.0796042 0.320281
-0.28921 -0.0803682 0.32026
-0.286808 -0.0811303 0.320237
-0.284406 -0.0818904 0.320211
-0.28201 -0.0826457 0.320184
-0.278827 -0.083641 0.320146
-0.275632 -0.0845949 0.3201
-0.272425 -0.0855094 0.320047
-0.269208 -0.0863891 0.319988
-0.266104 -0.0872084 0.319928
-0.262997 -0.088001 0.319863
-0.259879 -0.0887526 0.319792
-0.256751 -0.0894563 0.319716
-0.25361 -0.0901026 0.319637
-0.250589 -0.0906692 0.319558
-0.247519 -0.0911435 0.319474
-0.244441 -0.0915685 0.319388
-0.241356 -0.0919356 0.319299
-0.238265 -0.0922455 0.319208
-0.23528 -0.0924894 0.319119
-0.232054 -0.092682 0.319022
-0.228826 -0.0928395 0.318924
-0.225596 -0.0929542 0.318825
-0.222366 -0.0930252 0.318725
-0.21914 -0.0930507 0.318623
-0.215948 -0.0930253 0.318522
-0.212756 -0.0929763 0.31842
-0.209564 -0.0929006 0.318318
-0.206373 -0.0927999 0.318215
-0.203169 -0.092673 0.31811
-0.200113 -0.0925298 0.318008
-0.197058 -0.0923816 0.317907
-0.194003 -0.0922252 0.317805
-0.190949 -0.0920605 0.317702
-0.187891 -0.0918854 0.317599
-0.184891 -0.0917005 0.317496
-0.181892 -0.0914986 0.317394
-0.178894 -0.0912827 0.317292
-0.175897 -0.0910522 0.317189
-0.172892 -0.0908062 0.317085
-0.169844 -0.0905517 0.316979
-0.166796 -0.0902848 0.316875
-0.163749 -0.0900179 0.316768
-0.160702 -0.089751 0.316661
-0.157652 -0.0894838 0.316552
-0.15453 -0.0892112 0.316438
-0.151409 -0.0889227 0.316325
-0.148288 -0.0886385 0.316211
-0.145167 -0.0883593 0.316095
-0.142045 -0.0880857 0.315979
-0.138593 -0.0877998 0.315858
-0.135138 -0.0875391 0.31574
-0.131682 -0.0872942 0.315619
-0.128226 -0.0870656 0.315495
-0.124789 -0.0868593 0.315373
-0.121544 -0.0866739 0.315265
-0.118298 -0.0865376 0.315146
-0.115052 -0.0864212 0.315017
-0.111805 -0.0863235 0.314878
-0.108578 -0.0862455 0.31473
-0.105323 -0.086183 0.314566
-0.102067 -0.0861477 0.314385
-0.098813 -0.0861257 0.314187
-0.0955596 -0.0861169 0.313974
-0.0922944 -0.0861222 0.313739
-0.0891594 -0.0861358 0.313485
-0.086026 -0.0861596 0.313212
-0.0828943 -0.0861882 0.312921
-0.0797643 -0.0862236 0.312614
-0.0790979 -0.0862326 0.312545
-0.0785308 -0.0862405 0.312485
-0.0779638 -0.0862486 0.312425
-0.0773968 -0.0862571 0.312365
-0.0768299 -0.0862659 0.312303
-0.0762629 -0.086275 0.312241
-0.0734599 -0.0863209 0.311933
-0.0706586 -0.0863758 0.311611
-0.0678592 -0.0864411 0.311276
-0.0650617 -0.0865171 0.310926
-0.0622529 -0.0866024 0.310558
-0.0593115 -0.0867112 0.310149
-0.0563725 -0.0868353 0.309728
-0.0534364 -0.0869898 0.309297
-0.0505038 -0.0871743 0.308853
-0.0475242 -0.0873938 0.308388
-0.0442807 -0.0877032 0.307858
-0.0410449 -0.0880515 0.307304
-0.0378217 -0.0884713 0.306728
-0.0346177 -0.0889944 0.306129
-0.0312532 -0.0896709 0.305393
-0.0292193 -0.0901815 0.304847
-0.0272135 -0.0907403 0.304245
-0.0252097 -0.0913116 0.30365
-0.0231932 -0.0918792 0.303095
-0.0220533 -0.0921947 0.302818
-0.0199485 -0.09277 0.30236
-0.017859 -0.0934414 0.301968
-0.0157938 -0.0941982 0.301603
-0.0137712 -0.0950568 0.301226
-0.0113617 -0.0964054 0.30072
-1.001 -0.05 0.369521
-1.0008 -0.0500006 0.369522
-1.00059 -0.0500012 0.369524
-1.00039 -0.0500018 0.369525
-1.00019 -0.0500024 0.369526
-0.999983 -0.0500029 0.369527
-0.987482 -0.0500392 0.369604
-0.974981 -0.0500784 0.36968
-0.96248 -0.0501186 0.369758
-0.949978 -0.0501597 0.369836
-0.937477 -0.0502019 0.369915
-0.924975 -0.0502422 0.369995
-0.912473 -0.0502851 0.370076
-0.899971 -0.0503297 0.370157
-0.887469 -0.0503761 0.37024
-0.874967 -0.0504243 0.370324
-0.862469 -0.0504723 0.370408
-0.849972 -0.0505228 0.370493
-0.837474 -0.050576 0.370579
-0.824977 -0.0506317 0.370666
-0.812479 -0.0506901 0.370754
-0.800059 -0.0507487 0.370842
-0.787639 -0.0508105 0.37093
-0.775218 -0.050876 0.371019
-0.762798 -0.0509451 0.371109
-0.750377 -0.051018 0.3712
-0.738235 -0.0510907 0.37129
-0.726092 -0.0511673 0.37138
-0.713949 -0.0512492 0.37147
-0.701806 -0.0513363 0.371561
-0.689663 -0.0514286 0.371653
-0.676973 -0.0515276 0.37175
-0.664282 -0.0516324 0.371847
-0.651591 -0.0517451 0.371945
-0.638901 -0.0518658 0.372045
-0.62621 -0.0519946 0.372146
-0.613705 -0.0521284 0.372247
-0.601201 -0.0522742 0.372348
-0.588696 -0.0524338 0.372452
-0.576192 -0.0526071 0.372557
-0.563687 -0.0527943 0.372664
-0.551184 -0.0529878 0.372772
-0.538681 -0.0531933 0.372885
-0.526178 -0.0534234 0.373002
-0.513676 -0.0536784 0.373122
-0.50117 -0.0539588 0.373247
-0.488719 -0.054262 0.373374
-0.476268 -0.0546137 0.37351
-0.46382 -0.0550172 0.373655
-0.451373 -0.0554736 0.373808
-0.438911 -0.0559844 0.373972
-0.43269 -0.0562639 0.374062
-0.42647 -0.0565594 0.374157
-0.420252 -0.0568802 0.374257
-0.414035 -0.0572272 0.374361
-0.407807 -0.0576012 0.374469
-0.40156 -0.0580041 0.374582
-0.395315 -0.0584511 0.374703
-0.389075 -0.0589434 0.374831
-0.382838 -0.0594815 0.374965
-0.376565 -0.0600698 0.375108
-0.375412 -0.0601861 0.375137
-0.37426 -0.0603049 0.375166
-0.373107 -0.0604262 0.375195
-0.371956 -0.060551 0.375226
-0.371067 -0.0606506 0.37525
-0.366439 -0.0611812 0.375375
-0.361815 -0.0617529 0.375504
-0.357197 -0.0623656 0.375637
-0.352584 -0.0630194 0.375773
-0.350791 -0.0632905 0.375828
-0.349671 -0.0634642 0.375863
-0.348551 -0.0636404 0.375897
-0.347431 -0.063819 0.375932
-0.346312 -0.0640002 0.375967
-0.345189 -0.0641845 0.376003
-0.338823 -0.0652422 0.376206
-0.33248 -0.0664284 0.376411
-0.326163 -0.0677473 0.376618
-0.319875 -0.0691962 0.376828
-0.313294 -0.0708538 0.377049
-0.310105 -0.0716992 0.377144
-0.306919 -0.0725561 0.37723
-0.303737 -0.0734278 0.377309
-0.300559 -0.074314 0.377381
-0.29735 -0.0752352 0.377448
-0.294689 -0.076022 0.377501
-0.292031 -0.0768194 0.377544
-0.289374 -0.0776218 0.377578
-0.28672 -0.0784308 0.377604
-0.284323 -0.0791677 0.377619
-0.283767 -0.07934 0.377621
-0.28321 -0.0795125 0.377622
-0.282654 -0.0796851 0.377624
-0.282098 -0.0798579 0.377625
-0.281542 -0.0800309 0.377625
-0.278203 -0.0810704 0.377628
-0.274859 -0.0820954 0.377614
-0.271512 -0.0831072 0.377583
-0.268161 -0.0841068 0.377535
-0.264841 -0.0850763 0.377474
-0.261669 -0.0859952 0.377399
-0.25848 -0.086849 0.377306
-0.255279 -0.087656 0.377196
-0.252067 -0.0884175 0.377067
-0.248949 -0.0890931 0.376922
-0.245858 -0.0897376 0.376761
-0.242756 -0.0903236 0.376582
-0.239645 -0.0908523 0.376387
-0.236527 -0.0913354 0.376179
-0.233454 -0.0917656 0.375962
-0.231084 -0.0920409 0.375782
-0.228712 -0.0922996 0.375598
-0.226338 -0.0925266 0.375411
-0.223961 -0.0927217 0.37522
-0.221742 -0.092873 0.375038
-0.221223 -0.0929017 0.374995
-0.220703 -0.0929288 0.374951
-0.220183 -0.0929543 0.374907
-0.219664 -0.0929783 0.374863
-0.219145 -0.0930008 0.374819
-0.216022 -0.0931282 0.374555
-0.212898 -0.0932204 0.374291
-0.209772 -0.0932771 0.37403
-0.206646 -0.0932972 0.373771
-0.203542 -0.0932794 0.373515
-0.20042 -0.09323 0.373263
-0.197299 -0.0931541 0.373012
-0.194179 -0.0930558 0.372763
-0.191058 -0.0929342 0.372516
-0.187939 -0.0927887 0.372272
-0.18486 -0.0926358 0.372034
-0.181783 -0.0924583 0.371795
-0.178707 -0.0922608 0.371556
-0.175632 -0.0920426 0.371317
-0.172546 -0.0918022 0.371078
-0.169466 -0.0915607 0.37085
-0.166388 -0.091301 0.370612
-0.16331 -0.0910351 0.370375
-0.160232 -0.090763 0.37014
-0.157145 -0.090488 0.369905
-0.154054 -0.090216 0.369677
[...]
POINT_DATA 19196
 FIELD attributes 2
p 1 19196 float
18.3872 18.3934 18.3996 18.4057 18.4119 18.4181 18.6874 18.9515 19.2156 19.4797 19.7915 20.1799 20.5652 20.9504 21.3357 21.7309 22.1843 22.6238 23.0632 23.5027 23.9418 24.464 24.9819 25.4998 26.0176 26.5512 27.2096 27.8376 28.4655 29.0934 29.7206 30.1075 30.4907 30.8739 31.257 31.6441 32.0427 32.4413 32.8399 33.261 33.686 34.8213 35.8444 36.8672 37.8896 38.9306 40.4324 41.8119 43.1907 44.5687 45.9534 48.2536 50.273 52.2894 54.3009 57.1569 58.4244 59.6817 60.9684 62.2483 63.7494 65.6317 66.8732 68.0927 69.2864 70.5408 71.4947 71.8588 72.4635 72.745 72.7809 72.8458 72.9011 72.947 72.9835 73.0285 71.5857 71.1348 68.0986 62.4134 55.7481 52.1592 48.2202 44.1023 40.1229 35.3261 33.8655 32.3705 30.8663 29.3622 27.8561 23.3937 18.8665 14.1419 9.45244 4.95328 -1.19689 -7.62711 -15.8331 -23.6278 -31.1641 -38.5485 -44.399 -48.3392 -52.5381 -57.6942 -60.2838 -62.1185 -63.8862 -65.7906 -67.7828 -65.116 -62.2035 -59.4512 -57.401 -53.9886 -47.1611 -41.336 -35.89 -30.4638 -24.7877 -18.979 -14.8012 -10.6218 -6.35915 -3.74151 -0.19448 2.28567 4.75704 7.22764 8.632 12.0276 14.448 16.8685 19.3181 21.1541 24.6732 27.4468 30.2743 33.1357 36.9848 40.3983 43.7042 47.0046 50.6273 54.8785 57 59.2689 61.6525 64.023 66.3253 68.1344 69.7524 71.356 72.6565 73.2274 74.0867 75.4048 77.0149 78.6144 78.9528 79.2513 79.5495 79.8475 80.1453 80.4354 83.1275 85.7224 88.318 91.3769 94.5521 99.9274 104.467 108.217 111.944 114.774 121.466 126.61 130.358 133.206 133.785 137.606 139.128 139.751 140.415 140.82 142.739 144.78 146.883 148.966 141.438
18.2122 18.2182 18.2243 18.2304 18.2365 18.2426 18.4972 18.7892 19.0811 19.3654 19.7201 20.1148 20.5012 20.8879 21.2747 21.6647 22.1203 22.5616 23.0029 23.444 23.8865 24.4218 24.941 25.4604 25.9798 26.4964 27.1482 27.7773 28.4062 29.0351 29.6669 30.5087 31.3004 32.092 32.8834 33.6818 34.7326 35.7503 36.7679 37.7852 38.8754 40.4156 41.7539 43.0911 44.4272 45.7601 47.769 49.6811 51.5902 53.4963 56.3219 57.7442 58.9666 60.1721 61.3716 62.5925 63.9392 65.1646 66.378 67.5792 69.2508 69.7785 70.3277 70.6647 70.8388 70.9437 71.1914 71.4041 71.5818 71.8243 71.9795 72.0601 72.1394 72.2173 72.2938 72.3655 71.4156 70.492 69.4983 68.4361 63.7859 61.3731 58.535 55.6822 52.6388 49.2697 45.1029 40.9773 36.8894 32.7952 29.0903 28.2863 27.4822 26.6779 25.9123 25.3208 19.7178 12.6975 4.96678 -0.622114 -7.50911 -12.4451 -17.5786 -22.7786 -31.1845 -37.5769 -42.6489 -45.5448 -47.6038 -49.8492 -54.097 -52.8805 -52.3357 -51.8983 -51.6024 -51.4365 -51.4361 -51.4414 -51.4523 -51.4576 -51.0155 -46.573 -42.4798 -38.458 -34.5105 -30.4561 -25.2175 -20.883 -16.5532 -12.2286 -8.86476 -5.50559 -2.67539 0.196386 3.0667 4.8578 7.76584 10.1894 12.6112 15.195 17.3892 20.3429 22.905 25.5043 28.1032 30.694 34.2473 37.4744 40.7633 44.4637 49.843 52.9075 56.5202 60.1821 64.3225 70.3234 73.8915 77.3479 80.3385 82.9722 85.11 85.9766 87.2032 88.5368 90.1198 91.1267 91.892 93.6893 95.367 97.0436 98.9733 102.421 105.033 107.615 110.319 111.799 116.309 116.565 115.778 115.016 114.016 113.955 113.892 113.82 113.749 113.677 113.93 114.179 114.421 114.654 115.073 114.862 114.651 114.439 113.973 112.444 110.042 107.489 91.4426 93.3595 95.0246 89.9648 89.7543 92.2599 93.6761 81.0308 67.5812 53.9916 60.7861 69.5113 73.1116 75.575 76.4504 75.2424 74.7255 75.9187 75.7996 74.564 72.92 71.2415 70.9685 70.695 70.4209 70.1825 69.9512 62.1582 55.3381 49.7964 46.4161 46.3675 40.3287 43.1288 44.9204 46.3984 54.1763 51.2792 52.1256 53.8716 55.6326 58.0674 58.7413 59.4456 60.4209 60.7528 60.0361 59.5389 59.0538 59.0402 59.0125 59.437 62.3215 64.6777 67.046 69.4124 71.023 72.2228 72.7692 73.0147 73.25 73.5036 74.7433 76.1072 77.8198 78.8048 79.2986 82.0098 83.7559 85.2796 86.2847 86.3794 85.4758 84.5722 84.5054 84.5458 83.8485 83.8642 83.8536 83.8195 83.1839 81.8636 81.4007 80.7681 80.6024 80.8556 80.9321 81.9866 82.7772 82.9281 83.8666 84.7355 85.2895 85.5341 86.2157
18.1254 18.1315 18.1377 18.1439 18.1501 18.1562 18.4188 18.7113 18.9775 19.2426 19.591 19.9918 20.3799 20.7681 21.1545 21.5424 21.9973 22.4367 22.8769 23.317 23.7545 24.2845 24.8015 25.3185 25.8298 26.3484 26.9979 27.6331 28.2513 28.8695 29.5104 30.3309 31.109 31.8871 32.6648 33.4599 34.5312 35.5002 36.4689 37.4374 38.4183 39.8803 41.1154 42.3496 43.5828 44.9112 47.0019 48.6711 50.3251 51.9766 54.5057 55.4179 56.4722 57.6366 58.7983 59.9848 61.71 62.7252 63.7312 64.7804 66.1598 67.4391 68.2075 68.9513 69.6706 70.6695 70.7118 70.6199 70.5206 70.4139 70.335 70.223 70.0886 69.9319 69.9067 69.7345 66.7538 66.618 63.0674 57.91 51.2367 48.4083 45.1641 41.8603 38.4835 34.3642 34.1189 33.8121 33.4634 33.1148 32.7633 28.302 24.5324 20.465 16.3373 11.5611 6.8067 0.524812 -4.03611 -7.15548 -11.5496 -15.8104 -18.6969 -21.6687 -24.1673 -29.2119 -26.612 -26.6794 -27.2824 -27.9797 -29.1993 -28.6429 -28.5064 -28.3737 -28.2449 -28.0285 -27.6369 -26.8375 -24.9585 -23.1176 -21.4788 -20.1669 -18.7942 -17.4252 -16.2255 -14.005 -11.8042 -9.85862 -8.16181 -7.07241 -1.78072 1.70237 4.94028 8.17686 10.2602 14.751 16.9522 19.1434 21.3243 23.6899 24.7205 25.5494 26.3777 27.1431 27.8889 29.7207 31.5511 33.3803 35.2082 36.9514 40.1328 42.9246 45.7107 48.6197 51.9019 55.1424 58.2693 61.2367 64.2777 67.3914 70.3014 73.294 76.434 81.1268 86.1087 88.4292 91.1206 94.785 100.042 105.345 108.528 111.692 115.766 119.809 123.898 129.176 133.94 137.77 141.639 146.048 150.558 151.558 151.297 151.121 151.116 151.998 152.76 153.442 153.763 151.406 152.789 153.059 152.365 150.844 112.852
17.2121 17.2172 17.223 17.2288 17.2345 17.2403 17.4984 17.759 18.0197 18.2803 18.5413 18.5702 18.5991 18.6279 18.6568 18.6856 19.0619 19.428 19.794 20.1601 20.5251 20.9446 21.3626 21.7805 22.1984 22.6212 23.125 23.6208 24.1166 24.6123 25.1044 25.6952 26.2826 26.8699 27.4571 28.0362 28.7501 29.4481 30.1461 30.8439 31.5438 32.3937 33.2284 34.0631 34.8968 35.7159 36.7594 37.7564 38.7535 39.7503 40.7636 41.9968 43.1821 44.367 45.5564 46.7303 48.2537 49.6588 51.0345 52.4094 53.8563 55.4982 57.0122 58.5238 60.1518 61.7589 63.7675 65.6232 67.0336 68.4687 70.0402 70.4683 70.8662 71.2626 71.6575 71.958 72.108 72.2537 72.3851 72.5162 72.6239 72.7131 73.0563 73.3953 73.7299 74.0021 73.7056 73.5839 73.4935 73.396 73.1618 72.6045 71.8319 70.9984 70.1562 68.9951 67.7034 65.9834 64.5685 62.4484 60.8211 59.2124 56.8793 54.5006 51.097 48.676 47.7106 45.8531 43.1505 41.2335 39.3492 39.2558 38.9123 38.5636 38.1544 37.5807 37.4729 37.3901 37.336 37.2956 37.2688 37.6561 37.8858 38.0869 38.3117 38.4517 39.1064 39.8078 40.5399 41.2338 41.7396 42.8855 44.0214 45.1531 46.2418 47.3332 49.0985 50.8436 52.7037 54.5545 56.3842 57.0956 57.7859 58.4754 59.1639 59.7709 61.7602 63.7398 65.5361 67.0661 68.5402 71.2407 73.9743 77.2478 80.602 82.2877 86.1967 89.6385 92.4321 94.4107 94.5998 94.6619 94.4317 93.485 90.3463 86.564 87.5136 83.1808 74.8312 66.5351 58.917 56.2572 53.5854 50.9018 47.5303 43.9922 41.8353 39.6773 37.5184 35.7203 33.9245 21.2484 6.54637 -8.2982 -23.2448 -39.7935 -40.5983 -41.4029 -42.2074 -43.127 -44.0558 -46.1093 -46.2231 -46.3372 -46.4619 -46.5949 -52.2776 -58.0859 -61.6086 -64.9353 -68.4934 -62.4044 -56.7175 -56.2091 -56.0069 -55.9711 -56.8788 -46.7531 -43.5146 -40.2451 -34.9417 -32.5498 -31.6314 -30.7197 -29.8145 -29.0271 -26.3329 -23.6406 -21.1485 -19.4273 -17.7698 -17.5646 -17.3594 -17.1543 -17.0567 -17.0998 -15.1126 -14.6534 -14.211 -13.8072 -13.4762 -12.5985 -11.7498 -12.0189 -13.9663 -16.0119 -14.301 -13.5186 -13.7873 -13.9 -14.02 -13.822 -13.6332 -13.4537 -13.7813 -14.413 -13.5177 -14.4775 -15.6374 -16.8133 -17.904 -18.1551 -17.2558 -16.3796 -15.755 -16.6606 -16.7679 -16.8817 -17.4337 -17.9883 -18.5258 -18.8754 -19.2335 -19.3659 -18.5471 -17.6828 -18.4807 -19.2987 -18.2282 -16.7116 -15.1247 -14.0117 -12.8993 -11.7679 -10.5095 -9.25435 -8.1079 -6.97793 -5.85941 -4.74769 -3.67863 -1.14034 1.55221 4.21137 6.70857 8.65664 9.03362 9.41452 9.835 10.2541 10.7016 13.7164 16.641 19.4603 21.2126 22.3284 24.8783 27.3253 28.5183 29.7678 30.7486 32.1401 32.9895 33.6142 34.39 35.1726 36.9621 37.8224 38.355 38.7479 39.399 40.3431 40.2251 41.0243 41.7529 41.9431 42.592 42.6361 42.6721 42.6281 42.4238 42.441 42.3922 42.3154 42.2378 42.1793 41.9799 41.788 41.6032 41.6644 41.4006 41.4526 41.4753 41.138 41.1149 40.7193 40.8955 40.9637 40.9616 40.9595 40.9572 41.232 41.3223 38.3071 36.9897 38.6683 40.5065 42.3035 42.535 42.4378 42.3431 43.3014 43.8654 44.4261 44.6963 44.7934 45.3123 45.8202 45.9665 45.948 46.0128 46.5373 47.0433 47.6619 48.3094 48.6942 49.3612 50.0152 50.3372 50.5673 50.8058 51.2315 51.6654 52.1078 52.0012 51.2934 51.7908 52.1539 52.4287 52.1346 48.0119 48.0318 47.9628 47.4701 46.9733 40.3482 40.3148 40.2592 40.1843 39.947 39.4964 39.3848 39.1704 38.9242 38.3258 20.8246 20.7335 20.5798 20.3971 20.2143 17.217
16.9921 16.9969 17.0018 17.0066 17.0115 17.0163 17.2735 17.5212 17.769 18.0167 18.3187 18.6903 19.0476 19.4049 19.7621 20.1285 20.5532 20.9693 21.3852 21.8012 22.2169 22.4639 22.7099 22.956 23.202 23.4237 23.6659 23.9081 24.1503 24.3972 24.6437 25.2287 25.8011 26.3735 26.9458 27.5178 28.2033 28.8876 29.5719 30.2561 30.9509 31.7972 32.6189 33.4404 34.2617 35.084 36.09 37.0844 38.0786 39.0727 40.0769 41.3481 42.5575 43.7666 44.9753 46.2001 47.7666 49.2198 50.6694 52.1184 53.6 55.6629 57.3963 59.1288 60.8606 62.6639 64.8964 66.8456 68.7898 70.8904 73.4628 75.1622 76.4397 77.9288 79.439 80.5171 81.5076 82.4948 83.4788 84.4594 85.3537 86.3564 87.4399 88.2022 88.5538 89.2653 88.9943 88.3702 87.8827 86.8116 85.7476 84.4102 82.7495 80.1417 75.8777 70.8586 68.7341 66.7529 65.0349 62.8998 60.0395 58.1861 54.9072 51.7493 48.591 44.4368 44.2487 44.0606 43.8724 43.6843 43.5179 40.2739 36.9436 33.597 30.2345 27.4371 25.3448 23.4216 21.4145 19.3867 17.8757 17.7543 17.6527 17.537 17.2508 16.9594 17.0751 17.1405 17.2042 17.266 17.3282 17.4689 17.6323 17.7925 17.9492 18.097 18.3833 18.6292 18.8777 19.126 19.313 19.7521 20.1982 20.5991 20.9206 21.2722 21.9187 22.4582 23.1374 23.8893 24.5376 25.5015 26.6295 27.4159 28.0296 28.7493 30.1083 31.2116 32.0521 32.9276 33.661 35.9285 36.9939 37.964 38.8494 39.5469 41.0399 41.8769 42.6863 43.468 43.9443 44.8184 45.4929 45.7508 45.9056 45.7654 48.918 50.7036 52.7032 52.0679 50.3443 52.375 53.6979 52.2102 50.8715 47.2789 49.2218 48.8729 47.0897 45.2948 43.7781 38.0015 30.2567 18.135 3.97125 -7.37799 -8.93566 -10.5002 -11.6534 -12.1323 -12.6317 -15.2574 -18.931 -22.966 -25.5368 -28.5153 -29.103 -29.9392 -30.7721 -31.6011 -32.4355 -32.4087 -32.4022 -32.4209 -32.4395 -32.4581 -35.5336 -40.3342 -43.5475 -45.1787 -47.4598 -46.4771 -45.5589 -45.6295 -46.4791 -48.2414 -48.1824 -49.2148 -50.347 -51.6238 -54.0486 -55.0352 -56.1082 -57.2431 -58.2313 -59.8897
16.5574 16.5605 16.5637 16.5668 16.57 16.5731 16.792 17.0555 17.3189 17.5729 17.9101 18.2623 18.6159 18.9659 19.3157 19.6817 20.1054 20.5094 20.9134 21.3173 21.7245 22.208 22.6766 23.1452 23.6137 24.0851 24.6578 25.2155 25.7732 26.3308 26.8991 27.5874 28.2579 28.9283 29.5986 30.2702 31.1014 31.9145 32.7273 33.5401 34.3686 35.394 36.3938 37.3934 38.3928 39.3891 40.5126 41.6226 42.7322 43.8416 44.8198 45.0016 45.1834 45.3653 45.5471 45.7264 47.3681 48.955 50.5415 52.1274 53.708 55.8311 57.8889 59.9461 62.0027 64.0415 67.1053 69.8287 72.5455 75.2591 77.9148 82.3604 86.3855 90.3949 94.3875 100.561 100.739 100.917 101.095 101.272 101.442 104.21 106.766 109.245 111.696 114.053 118.598 122.957 125.275 127.404 131.75 133.545 134.787 135.345 136.041 136.525 137.408 136.705 135.744 134.95 134.546 134.218 133.86 133.065 131.497 129.006 128.395 127.783 126.976 126.123 125.248 120.836 115.574 104.929 94.0094 81.7975 81.5229 81.2477 80.0131 78.5122 77.0206 56.5841 31.4956 5.8638 -6.75775 -21.1353 -51.3405 -54.505 -56.2357 -48.7911 -40.0731 -41.2935 -42.5259 -44.6068 -48.9811 -50.7154 -44.1675 -38.2318 -32.4544 -26.8427 -24.5879 -17.9738 -13.9625 -11.6309 -10.5739 -8.33008 -5.25039 -3.36042 -2.49223 -1.94734 -1.95263 -1.35039 -0.889611 -0.594018 -0.312773 0.0126187 -0.264167 0.112721 0.492149 0.898049 2.43535 1.91293 2.2382 2.54062 2.79598 3.2387 2.26405 2.10512 1.89039 1.64776 2.49448 -0.243407 -0.910528 -1.63406 -2.38592 -2.63102 -4.61411 -8.70812 -10.9118 -13.576 -17.3616 -18.1715 -19.8069 -21.8778 -23.8861 -26.2283 -26.2258 -26.2247 -26.2238 -26.2229 -26.222 -25.8889 -25.8667 -25.776 -25.8532 -25.8893 -27.1076 -28.886 -30.936 -33.3477 -36.5367 -36.8589 -37.159 -37.4375 -37.7164 -37.9934 -40.3605 -42.0327 -42.7446 -43.4694 -44.2226 -45.6199 -47.0097 -48.4523 -49.9465 -51.466 -53.1623 -54.8738 -56.342 -56.3069 -56.2753 -56.44 -56.6284 -56.7673 -56.8112 -56.8593 -57.1132 -57.0526 -57.0302 -57.29 -57.5388 -57.9838 -58.4078 -58.5006 -58.4125 -58.3241 -58.4954 -58.6702 -58.992 -59.3782 -59.7506 -60.225 -60.705 -60.8511 -60.718 -60.5783 -60.6946 -60.8117 -60.7009 -60.4753 -60.2584 -60.6433 -60.7708 -60.6602 -61.1161 -61.5544 -61.8617 -62.1686 -62.2743 -62.164 -62.0554 -62.5122 -63.0488 -63.5856 -64.1874 -64.8365 -66.5264 -66.6453 -70.0349 -73.0366 -73.4525 -73.9275 -74.4079 -73.7789 -72.8187 -71.8731 -70.6727 -69.4875 -68.7535 -66.8193 -66.3605 -62.89 -59.4041 -55.9737 -53.1146 -51.4591 -46.8978 -42.3855 -39.3303 -40.0777 -40.7862 -39.6665 -38.579 -37.9978 -38.2753 -38.9091 -40.2828 -40.4616 -39.7785 -38.9112 -37.2117 -37.1799 -36.562 -35.8156 -35.0439 -34.2861 -34.062 -33.9545 -33.8469 -33.7393 -33.6276 -31.5141 -29.45 -27.4198 -25.4484 -24.8853 -19.0502 -16.1829 -16.0364 -18.7651 -23.7498 -23.7228 -23.715 -23.7213 -23.7381 -28.4057