# vtk DataFile Version 2.0
track0
ASCII
DATASET POLYDATA
POINTS 19196 float
-1.001 -0.05 0.316889
-1.0008 -0.0500006 0.316891
-1.00059 -0.0500012 0.316892
-1.00039 -0.0500018 0.316893
-1.00019 -0.0500024 0.316894
-0.999982 -0.050003 0.316895
-0.987481 -0.05004 0.316959
-0.97498 -0.0500789 0.317025
-0.962479 -0.0501187 0.317091
-0.949978 -0.0501594 0.317157
-0.937477 -0.050201 0.317224
-0.924975 -0.0502422 0.317291
-0.912473 -0.0502855 0.317358
-0.89997 -0.0503306 0.317426
-0.887468 -0.0503775 0.317494
-0.874966 -0.0504262 0.317563
-0.862462 -0.0504751 0.317633
-0.849959 -0.0505253 0.317702
-0.837455 -0.0505783 0.317773
-0.824951 -0.0506339 0.317843
-0.812448 -0.0506922 0.317914
-0.79995 -0.0507525 0.317985
-0.787453 -0.0508164 0.318056
-0.774955 -0.0508841 0.318127
-0.762458 -0.0509557 0.318199
-0.749961 -0.0510311 0.318271
-0.737547 -0.0511072 0.318342
-0.725134 -0.0511853 0.318413
-0.712721 -0.0512688 0.318483
-0.700308 -0.0513578 0.318554
-0.687895 -0.0514524 0.318624
-0.681925 -0.0515004 0.318657
-0.675955 -0.0515503 0.31869
-0.669984 -0.0516022 0.318723
-0.664014 -0.0516561 0.318756
-0.657983 -0.0517126 0.318789
-0.651787 -0.0517728 0.318823
-0.64559 -0.0518351 0.318856
-0.639394 -0.0518996 0.318889
-0.633198 -0.0519663 0.318922
-0.627001 -0.0520339 0.318955
-0.61425 -0.0521742 0.319022
-0.601499 -0.0523206 0.319088
-0.588748 -0.0524823 0.319153
-0.575997 -0.0526595 0.319217
-0.563245 -0.0528524 0.319279
-0.550725 -0.0530535 0.31934
-0.538206 -0.0532765 0.319401
-0.525687 -0.0535261 0.319459
-0.513168 -0.0538024 0.319514
-0.500645 -0.0541061 0.319567
-0.488224 -0.0544254 0.31962
-0.475804 -0.0547892 0.319674
-0.463386 -0.0552105 0.319725
-0.45097 -0.0556904 0.319773
-0.438537 -0.0562314 0.319818
-0.432347 -0.0565336 0.319843
-0.426157 -0.0568492 0.319871
-0.419968 -0.0571939 0.319898
-0.413781 -0.0575689 0.319925
-0.407583 -0.0579754 0.319951
-0.401362 -0.0584178 0.319973
-0.395145 -0.0589066 0.32
-0.388933 -0.0594496 0.320027
-0.382725 -0.0600473 0.320051
-0.376477 -0.060705 0.320076
-0.372036 -0.0612117 0.320095
-0.3676 -0.0617648 0.320117
-0.363172 -0.0623677 0.320141
-0.358751 -0.0630295 0.320166
-0.357614 -0.0632138 0.320173
-0.355124 -0.063625 0.320187
-0.352636 -0.0640506 0.320201
-0.350151 -0.0644906 0.320214
-0.347669 -0.064945 0.320227
-0.345162 -0.0654187 0.32024
-0.338842 -0.0666504 0.320274
-0.332544 -0.0679947 0.320302
-0.326278 -0.0694758 0.320328
-0.320044 -0.0710897 0.320345
-0.313555 -0.0729003 0.320351
-0.310348 -0.0738445 0.320349
-0.307141 -0.0747875 0.320345
-0.303937 -0.0757404 0.320339
-0.300738 -0.0767124 0.32033
-0.297519 -0.07771 0.320318
-0.296818 -0.0779356 0.320315
-0.296116 -0.0781619 0.320311
-0.295415 -0.0783879 0.320307
-0.294714 -0.0786132 0.320303
-0.294011 -0.0788381 0.320298
-0.291611 -0.0796042 0.320281
-0.28921 -0.0803682 0.32026
-0.286808 -0.0811303 0.320237
-0.284406 -0.0818904 0.320211
-0.28201 -0.0826457 0.320184
-0.278827 -0.083641 0.320146
-0.275632 -0.0845949 0.3201
-0.272425 -0.0855094 0.320047
-0.269208 -0.0863891 0.319988
-0.266104 -0.0872084 0.319928
-0.262997 -0.088001 0.319863
-0.259879 -0.0887526 0.319792
-0.256751 -0.0894563 0.319716
-0.25361 -0.0901026 0.319637
-0.250589 -0.0906692 0.319558
-0.247519 -0.0911435 0.319474
-0.244441 -0.0915685 0.319388
-0.241356 -0.0919356 0.319299
-0.238265 -0.0922455 0.319208
-0.23528 -0.0924894 0.319119
-0.232054 -0.092682 0.319022
-0.228826 -0.0928395 0.318924
-0.225596 -0.0929542 0.318825
-0.222366 -0.0930252 0.318725
-0.21914 -0.0930507 0.318623
-0.215948 -0.0930253 0.318522
-0.212756 -0.0929763 0.31842
-0.209564 -0.0929006 0.318318
-0.206373 -0.0927999 0.318215
-0.203169 -0.092673 0.31811
-0.200113 -0.0925298 0.318008
-0.197058 -0.0923816 0.317907
-0.194003 -0.0922252 0.317805
-0.190949 -0.0920605 0.317702
-0.187891 -0.0918854 0.317599
-0.184891 -0.0917005 0.317496
-0.181892 -0.0914986 0.317394
-0.178894 -0.0912827 0.317292
-0.175897 -0.0910522 0.317189
-0.172892 -0.0908062 0.317085
-0.169844 -0.0905517 0.316979
-0.166796 -0.0902848 0.316875
-0.163749 -0.0900179 0.316768
-0.160702 -0.089751 0.316661
-0.157652 -0.0894838 0.316552
-0.15453 -0.0892112 0.316438
-0.151409 -0.0889227 0.316325
-0.148288 -0.0886385 0.316211
-0.145167 -0.0883593 0.316095
-0.142045 -0.0880857 0.315979
-0.138593 -0.0877998 0.315858
-0.135138 -0.0875391 0.31574
-0.131682 -0.0872942 0.315619
-0.128226 -0.0870656 0.315495
-0.124789 -0.0868593 0.315373
-0.121544 -0.0866739 0.315265
-0.118298 -0.0865376 0.315146
-0.115052 -0.0864212 0.315017
-0.111805 -0.0863235 0.314878
-0.108578 -0.0862455 0.31473
-0.105323 -0.086183 0.314566
-0.102067 -0.0861477 0.314385
-0.098813 -0.0861257 0.314187
-0.0955596 -0.0861169 0.313974
-0.0922944 -0.0861222 0.313739
-0.0891594 -0.0861358 0.313485
-0.086026 -0.0861596 0.313212
-0.0828943 -0.0861882 0.312921
-0.0797643 -0.0862236 0.312614
-0.0790979 -0.0862326 0.312545
-0.0785308 -0.0862405 0.312485
-0.0779638 -0.0862486 0.312425
-0.0773968 -0.0862571 0.312365
-0.0768299 -0.0862659 0.312303
-0.0762629 -0.086275 0.312241
-0.0734599 -0.0863209 0.311933
-0.0706586 -0.0863758 0.311611
-0.0678592 -0.0864411 0.311276
-0.0650617 -0.0865171 0.310926
-0.0622529 -0.0866024 0.310558
-0.0593115 -0.0867112 0.310149
-0.0563725 -0.0868353 0.309728
-0.0534364 -0.0869898 0.309297
-0.0505038 -0.0871743 0.308853
-0.0475242 -0.0873938 0.308388
-0.0442807 -0.0877032 0.307858
-0.0410449 -0.0880515 0.307304
-0.0378217 -0.0884713 0.306728
-0.0346177 -0.0889944 0.306129
-0.0312532 -0.0896709 0.305393
-0.0292193 -0.0901815 0.304847
-0.0272135 -0.0907403 0.304245
-0.0252097 -0.0913116 0.30365
-0.0231932 -0.0918792 0.303095
-0.0220533 -0.0921947 0.302818
-0.0199485 -0.09277 0.30236
-0.017859 -0.0934414 0.301968
-0.0157938 -0.0941982 0.301603
-0.0137712 -0.0950568 0.301226
-0.0113617 -0.0964054 0.30072
-1.001 -0.05 0.369521
-1.0008 -0.0500006 0.369522
-1.00059 -0.0500012 0.369524
-1.00039 -0.0500018 0.369525
-1.00019 -0.0500024 0.369526
-0.999983 -0.0500029 0.369527
-0.987482 -0.0500392 0.369604
-0.974981 -0.0500784 0.36968
-0.96248 -0.0501186 0.369758
-0.949978 -0.0501597 0.369836
-0.937477 -0.0502019 0.369915
-0.924975 -0.0502422 0.369995
-0.912473 -0.0502851 0.370076
-0.899971 -0.0503297 0.370157
-0.887469 -0.0503761 0.37024
-0.874967 -0.0504243 0.370324
-0.862469 -0.0504723 0.370408
-0.849972 -0.0505228 0.370493
-0.837474 -0.050576 0.370579
-0.824977 -0.0506317 0.370666
-0.812479 -0.0506901 0.370754
-0.800059 -0.0507487 0.370842
-0.787639 -0.0508105 0.37093
-0.775218 -0.050876 0.371019
-0.762798 -0.0509451 0.371109
-0.750377 -0.051018 0.3712
-0.738235 -0.0510907 0.37129
-0.726092 -0.0511673 0.37138
-0.713949 -0.0512492 0.37147
-0.701806 -0.0513363 0.371561
-0.689663 -0.0514286 0.371653
-0.676973 -0.0515276 0.37175
-0.664282 -0.0516324 0.371847
-0.651591 -0.0517451 0.371945
-0.638901 -0.0518658 0.372045
-0.62621 -0.0519946 0.372146
-0.613705 -0.0521284 0.372247
-0.601201 -0.0522742 0.372348
-0.588696 -0.0524338 0.372452
-0.576192 -0.0526071 0.372557
-0.563687 -0.0527943 0.372664
-0.551184 -0.0529878 0.372772
-0.538681 -0.0531933 0.372885
-0.526178 -0.0534234 0.373002
-0.513676 -0.0536784 0.373122
-0.50117 -0.0539588 0.373247
-0.488719 -0.054262 0.373374
-0.476268 -0.0546137 0.37351
-0.46382 -0.0550172 0.373655
-0.451373 -0.0554736 0.373808
-0.438911 -0.0559844 0.373972
-0.43269 -0.0562639 0.374062
-0.42647 -0.0565594 0.374157
-0.420252 -0.0568802 0.374257
-0.414035 -0.0572272 0.374361
-0.407807 -0.0576012 0.374469
-0.40156 -0.0580041 0.374582
-0.395315 -0.0584511 0.374703
-0.389075 -0.0589434 0.374831
-0.382838 -0.0594815 0.374965
-0.376565 -0.0600698 0.375108
-0.375412 -0.0601861 0.375137
-0.37426 -0.0603049 0.375166
-0.373107 -0.0604262 0.375195
-0.371956 -0.060551 0.375226
-0.371067 -0.0606506 0.37525
-0.366439 -0.0611812 0.375375
-0.361815 -0.0617529 0.375504
-0.357197 -0.0623656 0.375637
-0.352584 -0.0630194 0.375773
-0.350791 -0.0632905 0.375828
-0.349671 -0.0634642 0.375863
-0.348551 -0.0636404 0.375897
-0.347431 -0.063819 0.375932
-0.346312 -0.0640002 0.375967
-0.345189 -0.0641845 0.376003
-0.338823 -0.0652422 0.376206
-0.33248 -0.0664284 0.376411
-0.326163 -0.0677473 0.376618
-0.319875 -0.0691962 0.376828
-0.313294 -0.0708538 0.377049
-0.310105 -0.0716992 0.377144
-0.306919 -0.0725561 0.37723
-0.303737 -0.0734278 0.377309
-0.300559 -0.074314 0.377381
-0.29735 -0.0752352 0.377448
-0.294689 -0.076022 0.377501
-0.292031 -0.0768194 0.377544
-0.289374 -0.0776218 0.377578
-0.28672 -0.0784308 0.377604
-0.284323 -0.0791677 0.377619
-0.283767 -0.07934 0.377621
-0.28321 -0.0795125 0.377622
-0.282654 -0.0796851 0.377624
-0.282098 -0.0798579 0.377625
-0.281542 -0.0800309 0.377625
-0.278203 -0.0810704 0.377628
-0.274859 -0.0820954 0.377614
-0.271512 -0.0831072 0.377583
-0.268161 -0.0841068 0.377535
-0.264841 -0.0850763 0.377474
-0.261669 -0.0859952 0.377399
-0.25848 -0.086849 0.377306
-0.255279 -0.087656 0.377196
-0.252067 -0.0884175 0.377067
-0.248949 -0.0890931 0.376922
-0.245858 -0.0897376 0.376761
-0.242756 -0.0903236 0.376582
-0.239645 -0.0908523 0.376387
-0.236527 -0.0913354 0.376179
-0.233454 -0.0917656 0.375962
-0.231084 -0.0920409 0.375782
-0.228712 -0.0922996 0.375598
-0.226338 -0.0925266 0.375411
-0.223961 -0.0927217 0.37522
-0.221742 -0.092873 0.375038
-0.221223 -0.0929017 0.374995
-0.220703 -0.0929288 0.374951
-0.220183 -0.0929543 0.374907
-0.219664 -0.0929783 0.374863
-0.219145 -0.0930008 0.374819
-0.216022 -0.0931282 0.374555
-0.212898 -0.0932204 0.374291
-0.209772 -0.0932771 0.37403
-0.206646 -0.0932972 0.373771
-0.203542 -0.0932794 0.373515
-0.20042 -0.09323 0.373263
-0.197299 -0.0931541 0.373012
-0.194179 -0.0930558 0.372763
-0.191058 -0.0929342 0.372516
-0.187939 -0.0927887 0.372272
-0.18486 -0.0926358 0.372034
-0.181783 -0.0924583 0.371795
-0.178707 -0.0922608 0.371556
-0.175632 -0.0920426 0.371317
-0.172546 -0.0918022 0.371078
-0.169466 -0.0915607 0.37085
-0.166388 -0.091301 0.370612
-0.16331 -0.0910351 0.370375
-0.160232 -0.090763 0.37014
-0.157145 -0.090488 0.369905
-0.154054 -0.090216 0.369677
[...]
POINT_DATA 19196
 FIELD attributes 1
U 3 19196 float
19.1787 	-0.0566645 	0.0990934 19.1784 	-0.0566904 	0.0991134 19.1781 	-0.0567162 	0.0991333 19.1777 	-0.0567421 	0.0991533 19.1774 	-0.0567679 	0.0991733 19.1771 	-0.0567938 	0.0991933 19.1629 	-0.0595961 	0.100368 19.1494 	-0.0609521 	0.100942 19.1359 	-0.062309 	0.101517 19.1225 	-0.0636669 	0.102091 19.1069 	-0.0628727 	0.102196 19.0863 	-0.066087 	0.10295 19.0663 	-0.0687849 	0.103599 19.0463 	-0.0714848 	0.104249 19.0262 	-0.0741868 	0.104899 19.0059 	-0.0742087 	0.105331 18.9816 	-0.0763507 	0.105815 18.9583 	-0.0802939 	0.106268 18.935 	-0.0842412 	0.106721 18.9117 	-0.0881928 	0.107174 18.8886 	-0.0910752 	0.107487 18.8604 	-0.0964061 	0.107443 18.8326 	-0.102054 	0.107488 18.8048 	-0.107708 	0.107533 18.777 	-0.113368 	0.107579 18.7485 	-0.114861 	0.107557 18.7126 	-0.117711 	0.106938 18.6786 	-0.125705 	0.106255 18.6446 	-0.133713 	0.105573 18.6106 	-0.141735 	0.10489 18.5767 	-0.149349 	0.104139 18.5553 	-0.155065 	0.103273 18.5342 	-0.161132 	0.102487 18.513 	-0.167205 	0.1017 18.4919 	-0.173282 	0.100914 18.4705 	-0.179426 	0.100119 18.4485 	-0.185595 	0.0993328 18.4265 	-0.19177 	0.0985466 18.4045 	-0.19795 	0.09776 18.3811 	-0.200637 	0.0970434 18.3575 	-0.202054 	0.0965581 18.2933 	-0.20991 	0.0949847 18.2357 	-0.23125 	0.0929737 18.1782 	-0.252662 	0.0909601 18.1206 	-0.274146 	0.0889438 18.062 	-0.29004 	0.0876513 17.9749 	-0.320248 	0.0869468 17.8938 	-0.356693 	0.0830297 17.8127 	-0.393265 	0.0791061 17.7317 	-0.429965 	0.075176 17.6481 	-0.45372 	0.074859 17.5083 	-0.512777 	0.0760986 17.3887 	-0.589928 	0.0713769 17.2693 	-0.667487 	0.0666386 17.1503 	-0.746318 	0.0620013 16.9815 	-0.829054 	0.0675536 16.8925 	-0.861073 	0.0767007 16.817 	-0.936691 	0.0750044 16.7398 	-1.01459 	0.0720895 16.6631 	-1.09294 	0.0691085 16.5825 	-1.17939 	0.0593132 16.456 	-1.29385 	0.072618 16.3701 	-1.4306 	0.0691113 16.2857 	-1.56823 	0.0653779 16.203 	-1.70539 	0.0635843 16.1151 	-1.83872 	0.0694486 16.0295 	-1.99899 	0.0786577 15.9718 	-2.17441 	0.0858524 15.8873 	-2.37834 	0.0915456 15.8307 	-2.56548 	0.0915847 15.8191 	-2.61223 	0.0910233 15.8002 	-2.7034 	0.088226 15.7821 	-2.79442 	0.0853374 15.7647 	-2.8853 	0.0823575 15.748 	-2.97603 	0.0792865 15.7182 	-3.06332 	0.0843532 15.7782 	-3.36799 	0.0708802 15.7327 	-3.71839 	0.0634867 15.8746 	-4.11002 	0.0447745 16.1957 	-4.51888 	0.015718 16.5068 	-4.86036 	-0.0145134 16.7391 	-4.92189 	-0.0195829 16.9541 	-5.04214 	-0.0301798 17.1464 	-5.2104 	-0.0473154 17.3334 	-5.37084 	-0.065715 17.518 	-5.63565 	-0.079837 17.6045 	-5.68346 	-0.0892877 17.6858 	-5.69898 	-0.0992696 17.7656 	-5.70611 	-0.109388 17.8454 	-5.71334 	-0.119503 17.9253 	-5.72069 	-0.129627 18.1592 	-5.77897 	-0.156011 18.395 	-5.83757 	-0.180164 18.6366 	-5.89663 	-0.197295 18.8753 	-5.94966 	-0.214439 19.0999 	-5.9726 	-0.231575 19.5088 	-5.82386 	-0.279904 19.9218 	-5.68076 	-0.327406 20.3224 	-5.55829 	-0.370253 20.6081 	-5.43856 	-0.402697 20.8833 	-5.32708 	-0.433848 21.2821 	-5.13146 	-0.488097 21.6027 	-4.85917 	-0.525105 21.825 	-4.49132 	-0.546582 22.0558 	-4.13604 	-0.580379 22.3387 	-3.45102 	-0.609311 22.5279 	-3.11143 	-0.630686 22.6001 	-2.6891 	-0.650335 22.6781 	-2.27347 	-0.664488 22.7652 	-1.85986 	-0.67781 22.8331 	-1.36301 	-0.688856 22.7114 	-1.10885 	-0.688818 22.5832 	-0.801942 	-0.693343 22.4613 	-0.493157 	-0.697887 22.3602 	-0.176913 	-0.70172 22.2176 	0.176317 	-0.706896 21.9426 	0.336936 	-0.698497 21.7167 	0.515265 	-0.697045 21.5106 	0.678739 	-0.696531 21.3053 	0.843689 	-0.695853 21.1362 	0.990957 	-0.702026 20.8604 	1.01194 	-0.690986 20.6716 	1.05815 	-0.690801 20.4828 	1.10465 	-0.690536 20.2925 	1.16159 	-0.686681 20.1892 	1.24436 	-0.690468 19.9443 	1.34278 	-0.678251 19.8045 	1.42642 	-0.674976 19.6658 	1.51228 	-0.675266 19.5271 	1.59887 	-0.67546 19.5126 	1.62906 	-0.676529 19.2696 	1.68767 	-0.662601 19.1476 	1.67711 	-0.667052 19.0255 	1.66655 	-0.671489 18.903 	1.65586 	-0.673929 18.8536 	1.64623 	-0.690367 18.5912 	1.71884 	-0.673101 18.4515 	1.68015 	-0.674876 18.3115 	1.63768 	-0.675627 18.1719 	1.59289 	-0.675046 18.0381 	1.49354 	-0.634577 17.8101 	1.34409 	-0.609305 17.6478 	1.25073 	-0.617203 17.4858 	1.15628 	-0.625464 17.3046 	1.03836 	-0.616186 17.0569 	0.975011 	-0.568573 16.9765 	0.712795 	-0.619805 16.8496 	0.604323 	-0.670254 16.7171 	0.502899 	-0.715857 16.5853 	0.400997 	-0.762326 16.4695 	0.316258 	-0.831162 16.3339 	0.176831 	-0.907599 16.2258 	0.109921 	-0.982955 16.1188 	0.0435207 	-1.05884 16.0258 	-0.0258842 	-1.15159 15.9518 	-0.0695737 	-1.29367 15.8605 	-0.120485 	-1.38074 15.7413 	-0.14377 	-1.46212 15.6204 	-0.176502 	-1.53435 15.5003 	-0.208501 	-1.60698 15.4749 	-0.215156 	-1.62254 15.4521 	-0.222957 	-1.63651 15.4295 	-0.230763 	-1.65051 15.4068 	-0.238575 	-1.66452 15.3841 	-0.246393 	-1.67857 15.3623 	-0.251679 	-1.68823 15.1647 	-0.297185 	-1.74316 14.9724 	-0.349461 	-1.79524 14.7801 	-0.401365 	-1.84783 14.5555 	-0.441882 	-1.90604 14.3333 	-0.530476 	-1.99154 13.9309 	-0.587864 	-1.99949 13.605 	-0.716159 	-1.99749 13.3262 	-0.838476 	-2.01603 13.0492 	-0.961018 	-2.03563 12.8266 	-1.22373 	-2.09713 12.4028 	-1.33508 	-2.12102 11.968 	-1.55862 	-2.1396 11.5265 	-1.88172 	-2.15413 11.0061 	-2.21301 	-2.40778 10.422 	-2.61662 	-2.80208 9.82207 	-2.73653 	-2.94331 8.72699 	-2.48806 	-2.59494 7.42935 	-2.09133 	-2.04501 6.12885 	-1.6959 	-1.48935 5.39794 	-1.47542 	-1.17318 4.44102 	-1.42713 	-0.833452 3.49514 	-1.28075 	-0.617066 2.57783 	-1.09424 	-0.480924 1.73247 	-0.969698 	-0.363628 0 	0 	0
19.1879 	-0.0554929 	0.117187 19.1875 	-0.0555184 	0.117206 19.1872 	-0.0555438 	0.117226 19.1869 	-0.0555693 	0.117245 19.1866 	-0.0555947 	0.117264 19.1863 	-0.0556202 	0.117284 19.1732 	-0.0601009 	0.117443 19.1583 	-0.0615872 	0.11863 19.1435 	-0.0630744 	0.119817 19.129 	-0.0645407 	0.120849 19.111 	-0.0616245 	0.122655 19.0906 	-0.065412 	0.12329 19.0704 	-0.0680749 	0.124474 19.0503 	-0.0707266 	0.12581 19.0302 	-0.0733801 	0.127145 19.0098 	-0.0729692 	0.128599 18.9857 	-0.0767476 	0.129131 18.9623 	-0.0806222 	0.130354 18.9389 	-0.0845003 	0.131576 18.9154 	-0.0883909 	0.13274 18.8919 	-0.089091 	0.133902 18.8631 	-0.0938666 	0.13441 18.8353 	-0.099288 	0.135412 18.8075 	-0.104709 	0.13645 18.7796 	-0.110136 	0.137489 18.7519 	-0.112351 	0.138292 18.7166 	-0.118121 	0.138422 18.6825 	-0.125919 	0.139241 18.6485 	-0.133737 	0.140063 18.6144 	-0.141566 	0.140885 18.5801 	-0.144902 	0.141139 18.5338 	-0.153008 	0.141716 18.4901 	-0.164236 	0.143315 18.4464 	-0.175489 	0.144914 18.4026 	-0.186767 	0.146514 18.3583 	-0.196343 	0.147826 18.2992 	-0.213473 	0.149096 18.242 	-0.232747 	0.150945 18.1848 	-0.252067 	0.152794 18.1277 	-0.271433 	0.154644 18.0662 	-0.27959 	0.156653 17.9756 	-0.295409 	0.162418 17.8972 	-0.329369 	0.167066 17.8189 	-0.363491 	0.17171 17.7407 	-0.397776 	0.17635 17.662 	-0.430011 	0.180651 17.5426 	-0.495497 	0.191278 17.4299 	-0.565052 	0.202741 17.3175 	-0.634967 	0.214203 17.2052 	-0.705247 	0.225663 17.0367 	-0.765512 	0.245586 16.948 	-0.805072 	0.259765 16.8752 	-0.87073 	0.270492 16.8034 	-0.93769 	0.280962 16.732 	-1.00497 	0.291381 16.6613 	-1.07435 	0.302531 16.5705 	-1.18623 	0.319811 16.4879 	-1.30066 	0.337293 16.406 	-1.41561 	0.354673 16.3249 	-1.53107 	0.37195 16.2122 	-1.63471 	0.396708 16.1736 	-1.66694 	0.40699 16.1337 	-1.69837 	0.417782 16.1052 	-1.74519 	0.425692 16.0855 	-1.8038 	0.431387 16.0728 	-1.84242 	0.435126 16.0325 	-1.98234 	0.447901 15.9946 	-2.12221 	0.460157 15.9589 	-2.26201 	0.471895 15.9182 	-2.40595 	0.484406 15.8977 	-2.46511 	0.490038 15.8874 	-2.4995 	0.493028 15.8772 	-2.53389 	0.495991 15.8671 	-2.56827 	0.498928 15.8571 	-2.60265 	0.501838 15.8448 	-2.63281 	0.50611 15.8546 	-2.96464 	0.511222 15.8534 	-3.31016 	0.520348 15.8575 	-3.65395 	0.528187 15.8665 	-3.99591 	0.534757 16.1285 	-4.27642 	0.477321 16.2766 	-4.37779 	0.439795 16.4154 	-4.49715 	0.408192 16.5552 	-4.61626 	0.376284 16.7017 	-4.79362 	0.346174 16.8375 	-4.97911 	0.335457 17.0388 	-5.11132 	0.276594 17.2638 	-5.21468 	0.222446 17.4845 	-5.32903 	0.167495 17.7056 	-5.4431 	0.112341 17.9058 	-5.54592 	0.0623283 17.947 	-5.56442 	0.0520312 17.9883 	-5.58291 	0.0417295 18.0296 	-5.60138 	0.0314233 18.07 	-5.61962 	0.021749 18.1066 	-5.63683 	0.0149351 18.4275 	-5.64904 	-0.0769308 18.7764 	-5.67528 	-0.173709 19.1394 	-5.70915 	-0.272996 19.4331 	-5.67628 	-0.359598 19.7203 	-5.71293 	-0.463278 20.0576 	-5.36886 	-0.58442 20.3321 	-5.12541 	-0.703374 20.6078 	-4.88682 	-0.822577 21.0289 	-4.55638 	-0.980714 21.2966 	-4.44034 	-1.10942 21.5809 	-4.07701 	-1.24917 21.7425 	-3.69498 	-1.36094 21.869 	-3.38916 	-1.45732 22.002 	-3.07923 	-1.55577 22.2016 	-2.57937 	-1.68301 22.1981 	-2.42117 	-1.72164 22.1746 	-2.12003 	-1.75075 22.1552 	-1.8187 	-1.78111 22.1386 	-1.50955 	-1.81215 22.1269 	-1.21986 	-1.84217 22.1281 	-1.15424 	-1.85215 22.1295 	-1.08856 	-1.8622 22.1311 	-1.0228 	-1.87231 22.1323 	-0.95825 	-1.88155 22.1117 	-0.901881 	-1.87512 21.9458 	-0.64755 	-1.84929 21.7876 	-0.395518 	-1.82044 21.6323 	-0.138726 	-1.79358 21.4803 	0.122964 	-1.76878 21.3156 	0.337474 	-1.7207 21.1177 	0.513144 	-1.70074 20.9419 	0.659994 	-1.6705 20.7666 	0.809011 	-1.64099 20.5918 	0.960259 	-1.61225 20.4145 	1.01425 	-1.57667 20.2723 	1.16942 	-1.57799 20.1335 	1.29269 	-1.56604 19.9958 	1.41903 	-1.55292 19.8583 	1.547 	-1.54023 19.7375 	1.54702 	-1.46058 19.6084 	1.65472 	-1.51468 19.4731 	1.68211 	-1.49717 19.338 	1.70986 	-1.47982 19.205 	1.71041 	-1.46039 19.046 	1.67622 	-1.4036 18.9212 	1.82848 	-1.42699 18.7847 	1.84452 	-1.41172 18.6401 	1.90267 	-1.39816 18.495 	1.96606 	-1.38503 18.3136 	1.90978 	-1.27682 18.1262 	2.02815 	-1.36032 17.951 	2.0107 	-1.34221 17.7714 	1.98937 	-1.32416 17.5489 	1.97198 	-1.30026 17.1322 	1.96109 	-1.21564 17.1072 	1.74203 	-1.26839 16.9444 	1.5971 	-1.2682 16.7535 	1.48056 	-1.24686 16.5102 	1.38582 	-1.17653 16.0825 	1.3029 	-0.999313 15.9997 	0.862637 	-1.06601 15.8554 	0.584723 	-1.07101 15.6869 	0.417906 	-1.06033 15.4828 	0.288997 	-1.04018 15.1932 	0.238432 	-0.986749 15.287 	-0.0017819 	-1.04243 15.2327 	-0.127967 	-1.06847 15.1323 	-0.218162 	-1.08506 14.9959 	-0.299459 	-1.07519 14.7991 	-0.275554 	-1.01549 14.8241 	-0.379992 	-1.11703 14.6982 	-0.454661 	-1.1458 14.5702 	-0.529083 	-1.16726 14.4423 	-0.603853 	-1.18847 14.199 	-0.632763 	-1.16266 14.1055 	-0.630272 	-1.21446 13.9128 	-0.64575 	-1.3108 13.718 	-0.661973 	-1.40875 13.5046 	-0.677115 	-1.50371 13.229 	-0.569422 	-1.6241 12.8129 	-0.428776 	-1.87047 11.3386 	-0.45426 	-1.65957 9.91847 	-0.430356 	-1.41608 8.50505 	-0.406331 	-1.17471 7.07609 	-0.443437 	-0.890915 6.95505 	-0.433753 	-0.874121 6.83791 	-0.427186 	-0.858582 6.73394 	-0.431112 	-0.847272 6.63013 	-0.435085 	-0.83599 6.52587 	-0.439133 	-0.824669 5.71722 	-0.414581 	-0.728049 4.91317 	-0.391547 	-0.632253 4.11546 	-0.370598 	-0.537595 3.32698 	-0.35265 	-0.444581 2.81903 	-0.564234 	-0.377787 2.8755 	-0.581384 	-0.453219 2.93782 	-0.598971 	-0.529324 3.00562 	-0.616947 	-0.606023 2.83352 	-0.56301 	-0.588877 1.61267 	-0.199702 	-0.16293 2.22492 	-0.154658 	-0.295484 2.97883 	-0.129921 	-0.440732 3.86886 	-0.167888 	-0.541556 3.06256 	-0.124364 	-0.119593 2.23755 	-0.0806828 	0.281247 3.49991 	-0.35831 	0.650955 3.86907 	-0.266098 	1.13505 3.63739 	0.0723847 	1.70496 3.35805 	0.317172 	2.06912 5.22325 	-0.0258916 	3.16468 7.12252 	-0.625816 	4.27703 9.02467 	-1.26498 	5.38939 7.73191 	-0.671038 	4.6639 6.15471 	0.0551675 	3.77519 5.96897 	-0.0853137 	5.12009 5.96621 	-0.36304 	6.33314 4.71347 	-0.142338 	6.14319 2.92142 	0.367203 	4.56904 2.45292 	0.514289 	4.11169 3.82661 	-0.469326 	6.12079 4.59288 	-1.00504 	7.88501 4.89894 	-1.17721 	9.19343 4.94037 	-1.29148 	9.20104 4.97825 	-1.41082 	9.21578 4.97443 	-1.45039 	9.25278 4.97059 	-1.48996 	9.28972 4.96674 	-1.52954 	9.32661 4.91807 	-1.50918 	9.14053 4.86137 	-1.47835 	8.91547 4.81234 	-1.92575 	9.92282 4.60677 	-2.22484 	10.4547 4.26711 	-2.37657 	11.1409 3.77254 	-2.01645 	9.80012 3.0394 	-0.909235 	5.4775 2.6794 	-1.63527 	7.18789 1.22961 	-0.884133 	3.45042 2.09146 	-1.33267 	6.02782 3.12592 	-1.88479 	9.0907 2.91097 	-1.32581 	7.84751 2.97116 	-1.59207 	9.37955 3.02182 	-1.51986 	9.64389 3.07241 	-1.367 	9.60801 3.1248 	-1.21297 	9.5692 3.19916 	-1.00024 	9.51192 3.06533 	-1.00803 	9.60567 2.90737 	-0.969135 	9.57042 2.54452 	-0.594535 	8.54551 2.39169 	-0.425944 	8.12582 2.37864 	-0.34829 	8.08109 2.68236 	-0.386349 	8.91744 2.78758 	-0.351694 	9.07817 2.51828 	-0.256319 	8.02304 2.25098 	-0.162836 	6.97517 2.24134 	0.152165 	6.23318 2.19519 	-0.0284952 	6.764 2.32765 	0.00279264 	7.03081 2.48538 	0.0290437 	7.36929 2.64574 	0.0545514 	7.71758 2.89198 	0.355034 	6.85504 2.89466 	0.233706 	7.43123 2.93968 	0.220546 	7.51898 3.00573 	0.257056 	7.38703 3.07395 	0.295156 	7.2526 3.15361 	0.340093 	7.09776 3.10247 	0.252073 	7.09509 2.99661 	0.170674 	6.87232 2.72324 	0.111706 	5.95453 2.94668 	0.24729 	6.24872 3.29354 	0.576842 	5.94794 3.09179 	0.525797 	6.01843 3.02962 	0.713927 	5.75333 2.98133 	0.878356 	5.47415 2.95354 	1.02415 	5.1131 2.95162 	1.53735 	3.87991 2.95708 	1.59232 	4.13063 2.96174 	1.64322 	4.38562 2.79349 	1.7558 	4.39454 2.60372 	1.87801 	4.34616 2.52626 	2.02565 	4.25305 2.50834 	2.26979 	4.33856 2.49147 	2.50924 	4.41234 2.4756 	2.74433 	4.47508 2.21499 	2.38292 	3.89291 1.65944 	1.34179 	2.56141 1.87135 	1.71585 	3.24204 2.12058 	2.11384 	4.0494 2.01974 	2.03534 	3.94512 1.35093 	1.40044 	2.73428 0.611076 	0.599508 	1.25275 0.624865 	0.670672 	1.33447 0.0405913 	0.400458 	0.478987 -0.0125159 	0.417107 	0.403287 -0.00103128 	0.846652 	0.528751 -0.0139801 	1.32196 	0.56701 -0.0254575 	1.34896 	0.473597 -0.0205762 	0.832384 	0.276158 0 	0 	0
19.192 	-0.0543569 	0.136008 19.1916 	-0.0543808 	0.136051 19.1913 	-0.0544047 	0.136095 19.191 	-0.0544286 	0.136139 19.1907 	-0.0544525 	0.136182 19.1904 	-0.0544763 	0.136226 19.177 	-0.0589808 	0.138128 19.1622 	-0.0604688 	0.13932 19.1486 	-0.0618016 	0.140904 19.1352 	-0.0631292 	0.142503 19.1174 	-0.060529 	0.143673 19.0964 	-0.0639982 	0.145641 19.0762 	-0.0665522 	0.147714 19.0561 	-0.0691079 	0.149787 19.036 	-0.0717503 	0.151181 19.0159 	-0.0710826 	0.152655 18.9915 	-0.0749651 	0.154628 18.9682 	-0.0787921 	0.155968 18.9449 	-0.0824412 	0.158057 18.9216 	-0.0860935 	0.160146 18.8986 	-0.0869915 	0.161679 18.87 	-0.0911812 	0.163424 18.8423 	-0.0963124 	0.165449 18.8146 	-0.101449 	0.167474 18.7872 	-0.106715 	0.168783 18.7596 	-0.108277 	0.170123 18.7242 	-0.114383 	0.172028 18.6898 	-0.122017 	0.173804 18.6563 	-0.129238 	0.1767 18.6229 	-0.136469 	0.179598 18.5884 	-0.140383 	0.181955 18.5432 	-0.14789 	0.184418 18.5005 	-0.158847 	0.18762 18.4577 	-0.169826 	0.190824 18.4149 	-0.180872 	0.193903 18.3708 	-0.186562 	0.196352 18.3105 	-0.200028 	0.200746 18.2563 	-0.2171 	0.20593 18.2021 	-0.234217 	0.211114 18.148 	-0.251379 	0.216299 18.0932 	-0.263598 	0.220753 18.0096 	-0.284337 	0.230414 17.9383 	-0.312918 	0.240454 17.867 	-0.341602 	0.250498 17.7958 	-0.37039 	0.260545 17.7159 	-0.388389 	0.267515 17.59 	-0.439022 	0.291239 17.491 	-0.493816 	0.311556 17.3929 	-0.548364 	0.331862 17.295 	-0.603271 	0.352159 17.1467 	-0.665529 	0.383609 17.0809 	-0.692528 	0.402381 17.0172 	-0.73937 	0.420164 16.9488 	-0.787145 	0.440654 16.8809 	-0.835398 	0.461081 16.8249 	-0.898074 	0.480212 16.711 	-0.966207 	0.509675 16.6491 	-1.05058 	0.535854 16.5878 	-1.13532 	0.561943 16.5221 	-1.22447 	0.587372 16.4349 	-1.30897 	0.621073 16.3371 	-1.4505 	0.656697 16.2756 	-1.59327 	0.68627 16.2191 	-1.72743 	0.717341 16.1641 	-1.86252 	0.748001 16.087 	-2.02057 	0.784326 16.0747 	-2.08651 	0.801209 16.0663 	-2.16033 	0.81153 16.0585 	-2.2342 	0.821682 16.0511 	-2.30813 	0.831662 16.0462 	-2.35932 	0.838449 16.0283 	-2.50796 	0.861851 16.012 	-2.65647 	0.884739 15.9974 	-2.80481 	0.907112 15.9752 	-2.95704 	0.927077 15.9192 	-3.16967 	0.959656 16.1166 	-3.3917 	0.905999 16.0415 	-3.71856 	0.964594 16.2075 	-4.08265 	0.913858 16.4957 	-4.38152 	0.795013 16.8502 	-4.62672 	0.635814 17.0249 	-4.74234 	0.54024 17.1909 	-4.83116 	0.460489 17.3565 	-4.91702 	0.38231 17.5212 	-4.99896 	0.306316 17.7104 	-5.10072 	0.22339 17.7299 	-5.10068 	0.214282 17.7475 	-5.10021 	0.205815 17.7639 	-5.09945 	0.197783 17.7803 	-5.09869 	0.189751 17.7968 	-5.09794 	0.181654 18.0325 	-5.1534 	0.0620219 18.2437 	-5.217 	-0.0483743 18.4598 	-5.25602 	-0.164754 18.6773 	-5.29269 	-0.282175 18.9052 	-5.27445 	-0.412735 19.2015 	-5.15705 	-0.60672 19.4858 	-5.0846 	-0.804438 19.723 	-4.97793 	-0.975781 19.9205 	-4.84308 	-1.12496 20.0977 	-4.68352 	-1.2692 20.353 	-4.4576 	-1.51069 20.5144 	-4.24251 	-1.66856 20.6787 	-4.03061 	-1.82795 20.8096 	-3.82125 	-1.9574 20.9969 	-3.34408 	-2.12435 20.9979 	-3.18395 	-2.22965 21.0186 	-2.89027 	-2.29974 21.0658 	-2.62298 	-2.37512 21.1175 	-2.35921 	-2.45367 21.1854 	-2.00968 	-2.55301 21.1817 	-1.92061 	-2.56392 21.1777 	-1.84575 	-2.56806 21.1739 	-1.77092 	-2.5724 21.1703 	-1.6961 	-2.57696 21.1646 	-1.56654 	-2.58521 21.1575 	-1.33979 	-2.60772 21.1348 	-1.11606 	-2.62484 21.0705 	-0.90143 	-2.62789 21.0078 	-0.685968 	-2.63129 20.9534 	-0.479482 	-2.63071 20.9066 	-0.370393 	-2.61526 20.8594 	-0.251689 	-2.59777 20.8125 	-0.132084 	-2.58048 20.7715 	-0.0261701 	-2.56545 20.696 	0.172099 	-2.53642 20.6217 	0.372174 	-2.50776 20.5516 	0.575204 	-2.4833 20.4857 	0.781199 	-2.46293 20.4206 	0.940991 	-2.46636 20.2474 	1.13144 	-2.39494 20.1031 	1.2381 	-2.35857 19.9678 	1.32022 	-2.31921 19.8331 	1.40295 	-2.27971 19.6208 	1.39075 	-2.2768 19.5154 	1.63023 	-2.22719 19.3817 	1.69946 	-2.22361 19.2482 	1.76871 	-2.22018 19.1147 	1.83795 	-2.21692 18.9614 	1.87819 	-2.22518 18.9214 	1.90208 	-2.20443 18.872 	1.91771 	-2.19842 18.8226 	1.93334 	-2.19241 18.7752 	1.93855 	-2.18638 18.7277 	1.93733 	-2.18019 18.6279 	1.95874 	-2.16778 18.5282 	1.98022 	-2.15538 18.4284 	2.00178 	-2.14302 18.3287 	2.02342 	-2.13068 18.191 	1.9235 	-2.07344 18.0709 	2.12861 	-2.09307 17.9253 	2.2008 	-2.07118 17.7797 	2.27323 	-2.04938 17.6293 	2.35033 	-2.0241 17.3475 	2.27078 	-1.854 17.2892 	2.28216 	-1.91728 17.1368 	2.23027 	-1.88538 16.9607 	2.11686 	-1.83203 16.7203 	1.94485 	-1.69203 16.4114 	1.7095 	-1.45958 16.3588 	1.80385 	-1.50027 16.2569 	1.83693 	-1.50313 16.0656 	1.75543 	-1.43737 15.6194 	1.6311 	-1.15332 15.1212 	1.4899 	-0.825199 15.1987 	1.24028 	-1.01806 15.2041 	1.02211 	-1.15073 14.981 	0.904457 	-1.09133 14.4252 	1.01884 	-0.778562 13.8556 	1.15114 	-0.454437 13.9038 	0.564879 	-0.685486 13.9419 	-0.0229135 	-0.908731 13.6631 	-0.260625 	-0.881098 13.0976 	-0.170157 	-0.752945 12.5207 	-0.0700006 	-0.621524 12.3844 	-0.714876 	-0.819381 12.2146 	-1.2494 	-0.961144 11.906 	-1.55343 	-0.921723 11.4947 	-1.70074 	-0.794404 10.8888 	-1.62062 	-0.53069 10.8498 	-2.36162 	-0.879579 9.34477 	-2.15611 	-0.80848 7.28541 	-1.59213 	-0.579642 5.23563 	-1.03477 	-0.354879 4.90735 	-0.946634 	-0.319728 4.28699 	-0.89266 	-0.291966 3.56669 	-0.821612 	-0.249283 2.80802 	-0.748037 	-0.199801 2.11519 	-0.715487 	-0.151052 1.70594 	-0.913302 	-0.0888954 2.28987 	-1.741 	-0.0289817 2.5541 	-2.12592 	-4.89176e-05 2.28321 	-1.90044 	-4.37293e-05 2.02111 	-1.68228 	-3.87095e-05 0 	0 	0