# vtk DataFile Version 2.0
track0
ASCII
DATASET POLYDATA
POINTS 19307 float
-1.001 -0.05 0.316889
-1.0008 -0.0500006 0.316891
-1.00059 -0.0500012 0.316892
-1.00039 -0.0500018 0.316893
-1.00019 -0.0500024 0.316894
-0.999982 -0.050003 0.316895
-0.987481 -0.0500401 0.316959
-0.97498 -0.050079 0.317025
-0.962479 -0.0501188 0.31709
-0.949978 -0.0501595 0.317157
-0.937477 -0.0502011 0.317223
-0.924975 -0.0502423 0.31729
-0.912473 -0.0502855 0.317357
-0.89997 -0.0503306 0.317425
-0.887468 -0.0503775 0.317494
-0.874966 -0.0504261 0.317563
-0.862462 -0.0504748 0.317632
-0.849959 -0.050525 0.317701
-0.837455 -0.0505778 0.317771
-0.824951 -0.0506333 0.317842
-0.812448 -0.0506914 0.317912
-0.79995 -0.0507515 0.317983
-0.787453 -0.0508151 0.318055
-0.774955 -0.0508826 0.318126
-0.762458 -0.0509539 0.318197
-0.749961 -0.051029 0.318269
-0.737547 -0.0511047 0.31834
-0.725134 -0.0511824 0.318411
-0.712721 -0.0512655 0.318481
-0.700308 -0.0513541 0.318551
-0.687895 -0.0514481 0.318621
-0.681911 -0.0514959 0.318655
-0.675927 -0.0515457 0.318688
-0.669943 -0.0515974 0.318721
-0.663958 -0.0516512 0.318754
-0.657913 -0.0517075 0.318787
-0.651731 -0.0517673 0.31882
-0.645548 -0.0518291 0.318853
-0.639366 -0.0518931 0.318886
-0.633184 -0.0519593 0.318919
-0.627001 -0.0520263 0.318952
-0.61425 -0.0521659 0.319019
-0.601499 -0.0523113 0.319085
-0.588748 -0.0524719 0.31915
-0.575997 -0.0526481 0.319214
-0.563245 -0.0528399 0.319276
-0.550725 -0.0530397 0.319337
-0.538206 -0.0532614 0.319397
-0.525687 -0.0535095 0.319455
-0.513168 -0.0537843 0.319511
-0.500645 -0.0540863 0.319564
-0.488224 -0.0544038 0.319616
-0.475804 -0.0547655 0.31967
-0.463386 -0.0551846 0.319721
-0.45097 -0.0556622 0.319769
-0.438538 -0.0562007 0.319813
-0.432347 -0.0565016 0.319838
-0.426157 -0.0568157 0.319866
-0.419968 -0.0571589 0.319894
-0.413781 -0.0575323 0.31992
-0.407583 -0.0579373 0.319946
-0.401362 -0.058378 0.319968
-0.395145 -0.058865 0.319996
-0.388933 -0.0594061 0.320022
-0.382725 -0.0600019 0.320047
-0.376477 -0.0606576 0.320071
-0.371933 -0.0611745 0.320091
-0.367395 -0.06174 0.320113
-0.362864 -0.0623582 0.320138
-0.358341 -0.0630379 0.320164
-0.357244 -0.0632165 0.32017
-0.354828 -0.0636169 0.320184
-0.352414 -0.0640309 0.320198
-0.350003 -0.0644585 0.320211
-0.347594 -0.0648995 0.320223
-0.345163 -0.0653588 0.320236
-0.338842 -0.0665888 0.32027
-0.332545 -0.0679317 0.320298
-0.326278 -0.0694117 0.320324
-0.320045 -0.0710246 0.320341
-0.313555 -0.0728347 0.320348
-0.310349 -0.0737785 0.320345
-0.307142 -0.074721 0.320342
-0.303938 -0.0756732 0.320336
-0.30074 -0.0766444 0.320327
-0.297521 -0.0776411 0.320315
-0.296776 -0.0778809 0.320312
-0.296031 -0.0781215 0.320308
-0.295287 -0.0783616 0.320304
-0.294542 -0.078601 0.320299
-0.293795 -0.0788399 0.320294
-0.291438 -0.0795922 0.320277
-0.289081 -0.0803426 0.320256
-0.286722 -0.081091 0.320233
-0.284363 -0.0818375 0.320208
-0.28201 -0.0825794 0.320181
-0.278827 -0.083575 0.320143
-0.275632 -0.0845292 0.320097
-0.272426 -0.0854438 0.320044
-0.269209 -0.0863237 0.319986
-0.266105 -0.0871431 0.319925
-0.262998 -0.0879358 0.319861
-0.259881 -0.0886875 0.319789
-0.256753 -0.0893914 0.319713
-0.253613 -0.0900381 0.319635
-0.250592 -0.090605 0.319555
-0.247522 -0.0910781 0.319471
-0.244445 -0.0915022 0.319385
-0.241361 -0.0918683 0.319297
-0.23827 -0.0921773 0.319206
-0.235285 -0.0924204 0.319118
-0.232058 -0.092611 0.31902
-0.228828 -0.0927671 0.318923
-0.225597 -0.0928801 0.318824
-0.222365 -0.0929494 0.318724
-0.219139 -0.0929731 0.318623
-0.215946 -0.0929455 0.318522
-0.212753 -0.0928942 0.31842
-0.209561 -0.0928162 0.318319
-0.20637 -0.0927131 0.318216
-0.203165 -0.0925837 0.318112
-0.20011 -0.0924383 0.318011
-0.197056 -0.0922879 0.31791
-0.194002 -0.0921292 0.317809
-0.190948 -0.0919621 0.317706
-0.187891 -0.0917846 0.317604
-0.184891 -0.0915971 0.317502
-0.181892 -0.0913923 0.3174
-0.178894 -0.0911732 0.317299
-0.175898 -0.0909394 0.317197
-0.172893 -0.0906898 0.317094
-0.169846 -0.090432 0.316989
-0.166799 -0.0901607 0.316885
-0.163753 -0.0898891 0.31678
-0.160706 -0.0896171 0.316674
-0.157657 -0.0893446 0.316566
-0.154537 -0.0890663 0.316453
-0.151418 -0.0887709 0.316341
-0.1483 -0.0884796 0.316228
-0.14518 -0.0881933 0.316114
-0.142061 -0.0879122 0.316
-0.138603 -0.0876169 0.31588
-0.135142 -0.087347 0.315764
-0.131681 -0.0870929 0.315645
-0.128218 -0.086855 0.315523
-0.124775 -0.0866405 0.315404
-0.121532 -0.0864472 0.315299
-0.118287 -0.0863042 0.315184
-0.115041 -0.0861821 0.315058
-0.111795 -0.0860789 0.314922
-0.10857 -0.0859957 0.314777
-0.105314 -0.0859278 0.314616
-0.102059 -0.0858882 0.314438
-0.098804 -0.0858617 0.314244
-0.0955504 -0.0858486 0.314033
-0.0922853 -0.0858499 0.3138
-0.089069 -0.0858594 0.31354
-0.0858544 -0.0858801 0.313261
-0.0826416 -0.0859055 0.312962
-0.0794306 -0.0859379 0.312646
-0.0781161 -0.0859541 0.312509
-0.0777359 -0.0859591 0.312468
-0.0773558 -0.0859643 0.312428
-0.0769757 -0.0859695 0.312387
-0.0765957 -0.0859749 0.312345
-0.0762156 -0.0859805 0.312304
-0.0734211 -0.0860219 0.311997
-0.0706283 -0.0860726 0.311676
-0.0678373 -0.0861335 0.311342
-0.0650482 -0.086205 0.310994
-0.0622481 -0.086285 0.310628
-0.0593139 -0.0863878 0.310221
-0.056382 -0.0865057 0.309801
-0.0534527 -0.086654 0.309373
-0.0505269 -0.0868318 0.308933
-0.0475555 -0.087044 0.308471
-0.044312 -0.0873449 0.307944
-0.0410761 -0.0876838 0.307395
-0.0378524 -0.0880943 0.306822
-0.0346465 -0.0886007 0.306227
-0.0312862 -0.0892611 0.305497
-0.0287749 -0.0898797 0.304826
-0.0263066 -0.0905717 0.304073
-0.0238387 -0.0912798 0.303333
-0.0213506 -0.091984 0.30266
-0.0204506 -0.0922335 0.302462
-0.018661 -0.092725 0.302116
-0.0168817 -0.0932818 0.301819
-0.0151132 -0.0938694 0.301518
-0.0133682 -0.0945201 0.301209
-0.0114106 -0.0954646 0.300826
-1.001 -0.05 0.369521
-1.0008 -0.0500006 0.369522
-1.00059 -0.0500012 0.369524
-1.00039 -0.0500018 0.369525
-1.00019 -0.0500024 0.369526
-0.999983 -0.0500029 0.369527
-0.987482 -0.0500392 0.369604
-0.974981 -0.0500785 0.36968
-0.96248 -0.0501187 0.369757
-0.949978 -0.0501599 0.369835
-0.937477 -0.0502021 0.369914
-0.924975 -0.0502424 0.369994
-0.912473 -0.0502852 0.370075
-0.899971 -0.0503298 0.370157
-0.887469 -0.0503762 0.370239
-0.874967 -0.0504243 0.370322
-0.862469 -0.0504722 0.370407
-0.849972 -0.0505226 0.370492
-0.837474 -0.0505756 0.370578
-0.824977 -0.0506312 0.370664
-0.812479 -0.0506895 0.370752
-0.800059 -0.0507479 0.37084
-0.787639 -0.0508094 0.370928
-0.775218 -0.0508747 0.371017
-0.762798 -0.0509435 0.371107
-0.750377 -0.0510161 0.371198
-0.738235 -0.0510885 0.371288
-0.726092 -0.0511648 0.371377
-0.713949 -0.0512462 0.371468
-0.701806 -0.0513329 0.371559
-0.689663 -0.0514248 0.37165
-0.676973 -0.0515232 0.371747
-0.664282 -0.0516274 0.371844
-0.651591 -0.0517395 0.371942
-0.638901 -0.0518595 0.372041
-0.62621 -0.0519876 0.372142
-0.613705 -0.0521205 0.372243
-0.601201 -0.0522655 0.372345
-0.588696 -0.0524241 0.372448
-0.576192 -0.0525964 0.372553
-0.563687 -0.0527826 0.372659
-0.551184 -0.0529749 0.372768
-0.53868 -0.0531791 0.37288
-0.526178 -0.0534078 0.372997
-0.513676 -0.0536613 0.373117
-0.50117 -0.05394 0.373241
-0.488719 -0.0542414 0.373369
-0.476268 -0.0545912 0.373504
-0.46382 -0.0549927 0.373649
-0.451373 -0.0554468 0.373802
-0.438911 -0.0559553 0.373966
-0.43269 -0.0562335 0.374055
-0.42647 -0.0565277 0.374151
-0.420252 -0.0568471 0.37425
-0.414035 -0.0571926 0.374354
-0.407807 -0.0575651 0.374462
-0.40156 -0.0579664 0.374576
-0.395316 -0.0584118 0.374696
-0.389075 -0.0589024 0.374824
-0.382838 -0.0594387 0.374959
-0.376566 -0.0600252 0.375101
-0.375358 -0.0601465 0.375131
-0.374151 -0.0602707 0.375161
-0.372945 -0.0603976 0.375193
-0.371738 -0.0605285 0.375225
-0.370818 -0.060632 0.375249
-0.366163 -0.0611666 0.375376
-0.361512 -0.0617428 0.375506
-0.356867 -0.0623606 0.37564
-0.352228 -0.0630198 0.375778
-0.350432 -0.0632921 0.375832
-0.349384 -0.0634551 0.375865
-0.348336 -0.0636203 0.375897
-0.347288 -0.0637876 0.37593
-0.34624 -0.0639571 0.375963
-0.34519 -0.0641294 0.375997
-0.338824 -0.0651852 0.3762
-0.332482 -0.0663695 0.376405
-0.326165 -0.0676865 0.376612
-0.319878 -0.0691336 0.376822
-0.313297 -0.0707891 0.377044
-0.310108 -0.0716341 0.377138
-0.306921 -0.0724905 0.377225
-0.303739 -0.0733617 0.377304
-0.30056 -0.0742474 0.377376
-0.29735 -0.0751686 0.377443
-0.294643 -0.075969 0.377497
-0.291939 -0.0767807 0.377541
-0.289237 -0.0775971 0.377576
-0.286536 -0.0784204 0.377602
-0.284102 -0.0791689 0.377617
-0.28359 -0.0793276 0.377618
-0.283078 -0.0794864 0.37762
-0.282566 -0.0796453 0.377621
-0.282054 -0.0798044 0.377622
-0.281542 -0.0799638 0.377622
-0.278203 -0.0810034 0.377625
-0.274859 -0.0820284 0.377611
-0.271511 -0.0830403 0.37758
-0.26816 -0.0840398 0.377533
-0.26484 -0.0850096 0.377471
-0.261668 -0.0859287 0.377397
-0.258478 -0.0867827 0.377304
-0.255276 -0.0875897 0.377193
-0.252064 -0.0883511 0.377065
-0.248946 -0.0890261 0.37692
-0.245854 -0.0896701 0.376758
-0.242752 -0.0902554 0.376579
-0.239641 -0.0907824 0.376384
-0.236522 -0.0912638 0.376176
-0.233449 -0.0916921 0.375958
-0.231055 -0.0919687 0.375776
-0.228661 -0.0922291 0.37559
-0.226263 -0.0924567 0.375401
-0.223863 -0.0926512 0.375207
-0.221765 -0.0927916 0.375035
-0.221242 -0.0928202 0.374992
-0.220718 -0.0928472 0.374948
-0.220194 -0.0928726 0.374904
-0.219671 -0.0928965 0.37486
-0.219148 -0.0929188 0.374815
-0.216025 -0.0930435 0.37455
-0.212901 -0.0931322 0.374286
-0.209776 -0.0931852 0.374024
-0.20665 -0.0932015 0.373765
-0.203546 -0.0931797 0.373508
-0.200424 -0.0931274 0.373256
-0.197302 -0.0930477 0.373005
-0.194182 -0.0929452 0.372755
-0.191061 -0.0928193 0.372509
-0.187942 -0.0926693 0.372264
-0.184863 -0.0925125 0.372026
-0.181785 -0.0923304 0.371786
-0.178709 -0.092128 0.371547
-0.175634 -0.0919047 0.371308
-0.172547 -0.0916588 0.371068
-0.169467 -0.0914128 0.370841
-0.166389 -0.0911474 0.370603
-0.163311 -0.0908756 0.370366
-0.160234 -0.0905972 0.370131
-0.157146 -0.0903155 0.369896
-0.154056 -0.0900368 0.369668
[...]
POINT_DATA 19307
 FIELD attributes 1
U 3 19307 float
19.1802 	-0.0567388 	0.0989641 19.1799 	-0.0567643 	0.0989841 19.1796 	-0.0567898 	0.0990041 19.1793 	-0.0568153 	0.0990241 19.179 	-0.0568408 	0.0990442 19.1787 	-0.0568663 	0.0990642 19.1645 	-0.0596497 	0.100239 19.151 	-0.0609898 	0.100814 19.1376 	-0.0623307 	0.101388 19.1241 	-0.0636726 	0.101963 19.1085 	-0.0628631 	0.102068 19.088 	-0.0660506 	0.102821 19.068 	-0.0687225 	0.103471 19.048 	-0.0713964 	0.10412 19.028 	-0.0740723 	0.10477 19.0078 	-0.0740713 	0.105201 18.9835 	-0.0761815 	0.105684 18.9602 	-0.0800911 	0.106137 18.9369 	-0.0840048 	0.106589 18.9136 	-0.0879227 	0.107042 18.8906 	-0.0907722 	0.107355 18.8624 	-0.0960595 	0.10731 18.8346 	-0.101664 	0.107355 18.8069 	-0.107274 	0.1074 18.7791 	-0.112891 	0.107445 18.7506 	-0.114344 	0.107422 18.7148 	-0.117141 	0.106801 18.6809 	-0.125078 	0.106119 18.6469 	-0.13303 	0.105436 18.6129 	-0.140995 	0.104753 18.579 	-0.148551 	0.104002 18.5576 	-0.154244 	0.103134 18.5365 	-0.160288 	0.102346 18.5153 	-0.166337 	0.101558 18.4941 	-0.172391 	0.100769 18.4727 	-0.178512 	0.0999726 18.4507 	-0.184628 	0.0991885 18.4288 	-0.19075 	0.098404 18.4069 	-0.196878 	0.0976193 18.3836 	-0.199497 	0.0969043 18.3601 	-0.200876 	0.0964192 18.2959 	-0.20862 	0.0948443 18.2384 	-0.229853 	0.0928337 18.1809 	-0.251157 	0.0908205 18.1234 	-0.272533 	0.0888047 18.0648 	-0.288327 	0.0875132 17.9778 	-0.31839 	0.0868034 17.8967 	-0.354678 	0.0828868 17.8157 	-0.391092 	0.0789638 17.7347 	-0.427634 	0.0750343 17.6511 	-0.451175 	0.0747096 17.5114 	-0.510036 	0.0759439 17.3918 	-0.587005 	0.0712279 17.2725 	-0.664382 	0.0664955 17.1535 	-0.742926 	0.0618502 16.9845 	-0.825484 	0.0674568 16.8953 	-0.857277 	0.0766324 16.8198 	-0.932794 	0.0749392 16.7427 	-1.01059 	0.072033 16.666 	-1.08882 	0.0690609 16.5854 	-1.17518 	0.0592243 16.4584 	-1.28933 	0.0726649 16.3725 	-1.42592 	0.0691711 16.288 	-1.5634 	0.0654511 16.2052 	-1.70041 	0.0636636 16.1171 	-1.83356 	0.0695178 16.0296 	-1.99745 	0.07895 15.9688 	-2.1785 	0.086243 15.8824 	-2.38712 	0.092061 15.8278 	-2.57634 	0.0913986 15.8167 	-2.62145 	0.0908569 15.7984 	-2.70987 	0.0881369 15.7808 	-2.79815 	0.0853309 15.7639 	-2.8863 	0.0824391 15.7478 	-2.97431 	0.0794616 15.7188 	-3.05896 	0.0843982 15.7757 	-3.36435 	0.0714066 15.7301 	-3.71487 	0.0640447 15.8717 	-4.10667 	0.0453778 16.193 	-4.51655 	0.0164651 16.5046 	-4.85808 	-0.0141378 16.737 	-4.91959 	-0.0192257 16.9527 	-5.038 	-0.029655 17.1451 	-5.20633 	-0.0467755 17.3322 	-5.36684 	-0.0651578 17.5166 	-5.63819 	-0.0789605 17.6085 	-5.68901 	-0.0890056 17.6948 	-5.7055 	-0.0996063 17.7797 	-5.71305 	-0.11035 17.8645 	-5.72071 	-0.121089 17.9494 	-5.72851 	-0.131839 18.1792 	-5.78578 	-0.157754 18.4114 	-5.84337 	-0.18093 18.6487 	-5.90138 	-0.197764 18.8833 	-5.95344 	-0.214603 19.1038 	-5.97588 	-0.231387 19.513 	-5.82696 	-0.279796 19.9271 	-5.68407 	-0.327079 20.3301 	-5.56182 	-0.370331 20.6162 	-5.44179 	-0.402682 20.8916 	-5.33014 	-0.433704 21.2906 	-5.13412 	-0.487927 21.6143 	-4.86457 	-0.525536 21.8367 	-4.49655 	-0.546911 22.0678 	-4.14105 	-0.580603 22.3528 	-3.445 	-0.609202 22.5465 	-3.10765 	-0.630498 22.6192 	-2.68499 	-0.649979 22.6975 	-2.26919 	-0.664039 22.7849 	-1.85545 	-0.677289 22.8508 	-1.34922 	-0.688072 22.7306 	-1.09875 	-0.687396 22.6028 	-0.791097 	-0.691849 22.4813 	-0.481562 	-0.696314 22.3807 	-0.164687 	-0.699932 22.2339 	0.19256 	-0.705137 21.955 	0.352225 	-0.695665 21.7296 	0.531222 	-0.693979 21.5241 	0.695351 	-0.693316 21.3193 	0.860965 	-0.692485 21.1528 	1.00691 	-0.699283 20.8735 	1.02784 	-0.687122 20.6851 	1.07451 	-0.686831 20.4968 	1.1215 	-0.686459 20.307 	1.179 	-0.682504 20.2081 	1.26298 	-0.686981 19.9595 	1.36338 	-0.673909 19.8198 	1.44837 	-0.670456 19.6814 	1.53561 	-0.670584 19.543 	1.62358 	-0.670612 19.5336 	1.65275 	-0.672405 19.2841 	1.71713 	-0.656679 19.1609 	1.70827 	-0.661046 19.0377 	1.69942 	-0.665396 18.914 	1.69046 	-0.6677 18.8673 	1.68301 	-0.685836 18.5978 	1.76184 	-0.667343 18.4567 	1.72392 	-0.668173 18.3156 	1.68096 	-0.667151 18.1746 	1.6376 	-0.666226 18.0375 	1.54014 	-0.624968 17.8081 	1.38908 	-0.59862 17.6431 	1.29549 	-0.606076 17.4784 	1.20079 	-0.6139 17.289 	1.07689 	-0.59927 17.0344 	1.01547 	-0.54938 16.9543 	0.746708 	-0.60033 16.8284 	0.633248 	-0.653172 16.6941 	0.530581 	-0.698617 16.5606 	0.427434 	-0.744953 16.4426 	0.342742 	-0.814494 16.3065 	0.198755 	-0.891896 16.1981 	0.13153 	-0.967417 16.0908 	0.0648345 	-1.04347 16.0024 	-0.0062694 	-1.14239 15.9262 	-0.0469355 	-1.28527 15.836 	-0.101936 	-1.37577 15.7147 	-0.124306 	-1.46117 15.5911 	-0.157626 	-1.53549 15.4683 	-0.190152 	-1.61022 15.4184 	-0.203141 	-1.641 15.4033 	-0.208362 	-1.65043 15.3882 	-0.213587 	-1.65988 15.3731 	-0.218813 	-1.66935 15.358 	-0.224043 	-1.67882 15.3433 	-0.22753 	-1.68519 15.1488 	-0.274843 	-1.73882 14.9577 	-0.32666 	-1.79058 14.7668 	-0.378097 	-1.84285 14.5369 	-0.415679 	-1.90185 14.3138 	-0.50132 	-1.98555 13.9151 	-0.559808 	-1.99186 13.5817 	-0.687457 	-1.98506 13.3038 	-0.808624 	-2.00302 13.0277 	-0.93002 	-2.02202 12.8021 	-1.18763 	-2.07962 12.3799 	-1.29689 	-2.1035 11.9458 	-1.5208 	-2.12133 11.5079 	-1.81787 	-2.13651 10.9873 	-2.15943 	-2.38645 10.4028 	-2.56225 	-2.77801 9.66588 	-2.71025 	-2.95075 8.27094 	-2.37313 	-2.4791 6.67028 	-1.88772 	-1.80358 5.06476 	-1.40417 	-1.11805 4.48882 	-1.23269 	-0.867063 3.66311 	-1.14637 	-0.611051 2.82975 	-0.940209 	-0.481456 2.0168 	-0.75212 	-0.357279 1.24677 	-0.601531 	-0.244411 0 	0 	0
19.1894 	-0.0555844 	0.11703 19.1891 	-0.0556095 	0.11705 19.1888 	-0.0556346 	0.117069 19.1885 	-0.0556597 	0.117089 19.1882 	-0.0556849 	0.117108 19.1879 	-0.05571 	0.117128 19.1747 	-0.0601708 	0.117288 19.1599 	-0.06164 	0.118476 19.1451 	-0.06311 	0.119663 19.1306 	-0.0645595 	0.120695 19.1127 	-0.0616291 	0.1225 19.0922 	-0.06539 	0.123134 19.0722 	-0.0680276 	0.124318 19.0521 	-0.0706541 	0.125652 19.0319 	-0.0732825 	0.126987 19.0116 	-0.0728494 	0.128439 18.9875 	-0.0765948 	0.128971 18.9641 	-0.0804371 	0.130192 18.9407 	-0.0842827 	0.131413 18.9174 	-0.0881408 	0.132575 18.8938 	-0.0888114 	0.133737 18.8651 	-0.0935448 	0.134242 18.8373 	-0.0989244 	0.135242 18.8095 	-0.104303 	0.136279 18.7817 	-0.109689 	0.137317 18.754 	-0.111864 	0.138117 18.7188 	-0.117581 	0.138245 18.6848 	-0.125325 	0.139062 18.6507 	-0.133088 	0.139883 18.6167 	-0.140862 	0.140704 18.5824 	-0.144146 	0.140957 18.5362 	-0.152179 	0.14153 18.4925 	-0.163332 	0.143127 18.4488 	-0.174511 	0.144724 18.4051 	-0.185715 	0.146321 18.3609 	-0.195214 	0.147631 18.3018 	-0.212241 	0.148899 18.2447 	-0.231413 	0.150746 18.1875 	-0.25063 	0.152593 18.1304 	-0.269893 	0.154441 18.069 	-0.277941 	0.156447 17.9784 	-0.293595 	0.162203 17.9001 	-0.327404 	0.166848 17.8218 	-0.361374 	0.17149 17.7436 	-0.395507 	0.176128 17.665 	-0.42758 	0.180424 17.5456 	-0.492875 	0.191048 17.433 	-0.562257 	0.202512 17.3206 	-0.631998 	0.213974 17.2084 	-0.702103 	0.225435 17.0398 	-0.762137 	0.245392 16.9511 	-0.801609 	0.259567 16.8781 	-0.867047 	0.270326 16.8064 	-0.933904 	0.280803 16.735 	-1.00108 	0.291229 16.6643 	-1.07036 	0.302392 16.5733 	-1.1821 	0.319685 16.4907 	-1.29639 	0.337182 16.4088 	-1.4112 	0.354577 16.3277 	-1.52653 	0.37187 16.2146 	-1.62984 	0.396734 16.1741 	-1.66357 	0.407506 16.1323 	-1.69647 	0.418809 16.104 	-1.74762 	0.426693 16.0834 	-1.80899 	0.432656 16.0715 	-1.84571 	0.436222 16.031 	-1.98638 	0.449066 15.9929 	-2.127 	0.461387 15.9571 	-2.26755 	0.473184 15.9161 	-2.4123 	0.485761 15.8957 	-2.47155 	0.491397 15.8861 	-2.50372 	0.494192 15.8765 	-2.53589 	0.496965 15.867 	-2.56805 	0.499714 15.8577 	-2.60021 	0.50244 15.8462 	-2.62842 	0.506439 15.8558 	-2.9604 	0.511629 15.8546 	-3.30595 	0.520779 15.8586 	-3.64978 	0.528643 15.8677 	-3.99177 	0.535239 16.1274 	-4.27295 	0.478433 16.2756 	-4.37437 	0.440934 16.4145 	-4.49377 	0.409332 16.5545 	-4.61291 	0.377424 16.7012 	-4.79274 	0.347406 16.8372 	-4.97836 	0.33666 17.0422 	-5.11576 	0.277006 17.272 	-5.21766 	0.221851 17.4967 	-5.33395 	0.165946 17.7218 	-5.44996 	0.109831 17.9253 	-5.55433 	0.0590388 17.9633 	-5.57136 	0.0495572 18.0014 	-5.58838 	0.0400718 18.0394 	-5.60538 	0.0305824 18.0766 	-5.62217 	0.021677 18.1104 	-5.63799 	0.0154082 18.4328 	-5.65073 	-0.0767423 18.7808 	-5.67637 	-0.173334 19.1442 	-5.71027 	-0.27264 19.44 	-5.67904 	-0.359557 19.7275 	-5.71558 	-0.463184 20.0652 	-5.37116 	-0.584352 20.3401 	-5.12732 	-0.703336 20.6179 	-4.88718 	-0.823044 21.0419 	-4.55515 	-0.981931 21.3101 	-4.43887 	-1.1107 21.5949 	-4.0747 	-1.25067 21.7603 	-3.68562 	-1.36395 21.8871 	-3.37895 	-1.46042 22.0206 	-3.06818 	-1.55897 22.2209 	-2.56813 	-1.68638 22.2186 	-2.41567 	-1.726 22.1947 	-2.10747 	-1.7552 22.1745 	-1.79627 	-1.78548 22.1584 	-1.48347 	-1.81694 22.1478 	-1.20906 	-1.84545 22.1491 	-1.14278 	-1.85552 22.1506 	-1.07644 	-1.86566 22.1523 	-1.01002 	-1.87586 22.1542 	-0.943539 	-1.88613 22.1308 	-0.883621 	-1.87854 21.9649 	-0.623506 	-1.85474 21.8072 	-0.370355 	-1.82602 21.6525 	-0.112413 	-1.7993 21.501 	0.15046 	-1.77466 21.3341 	0.357364 	-1.72234 21.133 	0.539923 	-1.70435 20.9577 	0.688131 	-1.67414 20.7829 	0.838535 	-1.64468 20.6086 	0.991197 	-1.61598 20.4308 	1.04053 	-1.57845 20.2896 	1.20048 	-1.58064 20.1515 	1.32553 	-1.56869 20.0145 	1.45373 	-1.55554 19.8777 	1.58358 	-1.54285 19.7587 	1.5779 	-1.45897 19.6293 	1.69261 	-1.51705 19.4933 	1.72172 	-1.4994 19.3575 	1.75121 	-1.48192 19.2238 	1.75341 	-1.46229 19.0628 	1.71965 	-1.40238 18.9383 	1.88267 	-1.42826 18.8008 	1.90106 	-1.41299 18.6554 	1.9615 	-1.39944 18.5074 	2.02098 	-1.38127 18.3231 	1.96685 	-1.27191 18.1345 	2.08675 	-1.3548 17.9564 	2.0815 	-1.34462 17.7747 	2.06196 	-1.32668 17.5301 	2.04724 	-1.29696 17.104 	2.03894 	-1.21199 17.0802 	1.81836 	-1.26382 16.9339 	1.66348 	-1.26985 16.7416 	1.54706 	-1.24849 16.4701 	1.45479 	-1.16413 16.0346 	1.37376 	-0.987353 15.9547 	0.92563 	-1.05239 15.8236 	0.610453 	-1.0681 15.6533 	0.440591 	-1.05699 15.4298 	0.322908 	-1.03197 15.1317 	0.271975 	-0.980119 15.2323 	0.0258605 	-1.03315 15.2034 	-0.120307 	-1.0627 15.1036 	-0.211562 	-1.07935 14.9574 	-0.275622 	-1.06281 14.7565 	-0.24848 	-1.00531 14.789 	-0.353628 	-1.1053 14.6877 	-0.432577 	-1.14413 14.5609 	-0.506509 	-1.16601 14.4171 	-0.574106 	-1.18133 14.1702 	-0.602179 	-1.15845 14.0824 	-0.598838 	-1.20852 13.906 	-0.61092 	-1.29835 13.7115 	-0.626469 	-1.39691 13.4953 	-0.618696 	-1.4992 13.2157 	-0.509648 	-1.62197 12.7516 	-0.357482 	-1.89347 10.9034 	-0.423552 	-1.56446 9.14453 	-0.44734 	-1.23399 7.61823 	-0.417666 	-0.979997 6.8252 	-0.400217 	-0.850196 6.6684 	-0.388502 	-0.83238 6.51167 	-0.37678 	-0.814582 6.35502 	-0.365052 	-0.796802 6.19544 	-0.358983 	-0.775455 6.027 	-0.362969 	-0.747204 5.27796 	-0.348961 	-0.65736 4.53213 	-0.335481 	-0.56825 3.79069 	-0.322718 	-0.48013 3.05559 	-0.310974 	-0.393417 2.53901 	-0.475773 	-0.327149 2.57926 	-0.487957 	-0.383984 2.62332 	-0.500426 	-0.441265 2.67099 	-0.513155 	-0.498951 2.55196 	-0.476261 	-0.491494 1.6043 	-0.196421 	-0.161701 2.24452 	-0.150561 	-0.299558 3.06248 	-0.133177 	-0.451366 4.02242 	-0.174025 	-0.565478 3.17892 	-0.127018 	-0.12584 2.31408 	-0.0798742 	0.292772 3.57673 	-0.356325 	0.659575 4.01461 	-0.295279 	1.13003 3.79809 	0.0378193 	1.69562 3.47437 	0.332986 	2.14053 5.33264 	0.0226583 	3.22917 7.22159 	-0.505599 	4.33299 9.12062 	-1.13209 	5.44081 7.74954 	-0.501509 	4.67463 6.18012 	0.22899 	3.79521 6.00964 	0.103347 	5.13467 6.34422 	-0.332498 	6.42222 5.01709 	-0.0742464 	6.1838 3.22384 	0.421835 	5.04746 2.72602 	0.577354 	4.56509 4.09426 	-0.401289 	6.5594 4.84213 	-0.905552 	8.3254 5.01961 	-1.03627 	9.00343 5.05815 	-1.13928 	9.01338 5.09175 	-1.24149 	9.02898 5.08684 	-1.29091 	9.07607 5.08191 	-1.34033 	9.12306 5.07695 	-1.38977 	9.16996 5.01352 	-1.36135 	8.92712 4.94236 	-1.32304 	8.64748 4.92485 	-1.79946 	9.81803 4.76716 	-2.14234 	10.266 4.4372 	-2.32688 	11.0438 3.91031 	-1.89027 	9.38441 3.17152 	-0.791835 	5.07399 2.77832 	-1.50842 	6.71158 1.72306 	-1.25636 	4.86401 2.72332 	-1.78045 	7.83635 3.4324 	-2.03226 	9.76971 3.0572 	-1.33231 	7.97301 3.10645 	-1.54929 	9.22747 3.15045 	-1.49532 	9.4655 3.19463 	-1.3694 	9.43487 3.24009 	-1.24267 	9.40224 3.30125 	-1.07591 	9.35689 3.14399 	-1.09056 	9.46738 2.98997 	-1.09953 	9.57445 2.72698 	-0.921455 	9.13988 2.47047 	-0.64633 	8.41841 2.34712 	-0.341958 	7.99398 2.52002 	-0.452953 	8.48393 2.86802 	-0.456495 	9.43566 2.59537 	-0.358111 	8.36369 2.32469 	-0.261278 	7.29875 2.45081 	0.181507 	6.69757 2.33844 	-0.118635 	7.4602 2.47514 	-0.085597 	7.73032 2.62972 	-0.0563687 	8.05344 2.82569 	0.0901387 	7.86899 3.08805 	0.414384 	6.91922 3.09064 	0.3609 	7.17613 3.11172 	0.353294 	7.22831 3.14354 	0.371446 	7.1666 3.17584 	0.389948 	7.10433 3.2106 	0.409949 	7.03772 3.15209 	0.305025 	7.03506 3.09109 	0.198674 	7.03902 2.80948 	0.125242 	6.12105 3.08984 	0.29012 	6.50707 3.41919 	0.692521 	5.69824 3.15324 	0.530829 	5.92484 3.08826 	0.7285 	5.65306 3.03321 	0.91874 	5.37413 3.01431 	1.24146 	4.71522 3.05492 	1.75103 	3.82981 3.06172 	1.78756 	3.97586 3.06824 	1.82268 	4.12357 2.97784 	1.89319 	4.12931 2.861 	1.97319 	4.09202 2.72698 	2.06541 	4.04583 2.55091 	2.42392 	4.18125 2.48894 	2.75887 	4.27482 2.4665 	3.08144 	4.34185 2.09833 	2.5476 	3.47802 1.35705 	1.159 	1.64932 1.47483 	1.39995 	2.15515 1.66396 	1.66301 	3.09868 1.50563 	1.48495 	2.64554 1.2112 	1.17027 	1.83045 0.514865 	0.603909 	0.653228 0.480295 	0.635387 	0.648119 0.448293 	0.671883 	0.646535 0.418987 	0.71343 	0.648545 0.35069 	0.606187 	0.564976 0.233495 	0.361604 	0.395941 0.105727 	0.504097 	0.253991 0.0226771 	0.539328 	0.149126 -0.0269414 	0.507482 	0.0748636 -0.0536903 	0.433784 	0.0224212 0 	0 	0
19.1935 	-0.054461 	0.135826 19.1932 	-0.0544845 	0.135869 19.1929 	-0.0545081 	0.135913 19.1926 	-0.0545316 	0.135956 19.1923 	-0.0545552 	0.136 19.1919 	-0.0545787 	0.136044 19.1786 	-0.0590625 	0.137945 19.1637 	-0.0605334 	0.139138 19.1502 	-0.0618512 	0.140721 19.1368 	-0.0631639 	0.14232 19.119 	-0.0605505 	0.143489 19.0981 	-0.0639939 	0.145456 19.0779 	-0.066524 	0.147528 19.0578 	-0.069056 	0.149599 19.0377 	-0.0716734 	0.150993 19.0177 	-0.0709856 	0.152464 18.9933 	-0.0748355 	0.154435 18.9701 	-0.0786306 	0.155773 18.9468 	-0.0822489 	0.15786 18.9235 	-0.0858705 	0.159947 18.9006 	-0.0867405 	0.161477 18.872 	-0.0908908 	0.163219 18.8443 	-0.0959822 	0.165242 18.8167 	-0.101079 	0.167264 18.7893 	-0.106304 	0.168571 18.7617 	-0.107829 	0.169909 18.7263 	-0.113882 	0.17181 18.692 	-0.121463 	0.173584 18.6586 	-0.128633 	0.176477 18.6252 	-0.135812 	0.179371 18.5907 	-0.139675 	0.181723 18.5456 	-0.147113 	0.184183 18.5029 	-0.157999 	0.187383 18.4602 	-0.168906 	0.190584 18.4174 	-0.17988 	0.193659 18.3734 	-0.185497 	0.196106 18.3131 	-0.198863 	0.200494 18.2589 	-0.215839 	0.205674 18.2048 	-0.232859 	0.210855 18.1507 	-0.249925 	0.216036 18.0959 	-0.262044 	0.220482 18.0125 	-0.282645 	0.230139 17.9412 	-0.311089 	0.240173 17.8699 	-0.339636 	0.250211 17.7987 	-0.368285 	0.260252 17.7189 	-0.386109 	0.267216 17.5931 	-0.436509 	0.290932 17.4941 	-0.491125 	0.311245 17.3961 	-0.545501 	0.331547 17.2982 	-0.600234 	0.35184 17.1498 	-0.662338 	0.383331 17.084 	-0.689295 	0.402113 17.0203 	-0.735948 	0.419911 16.952 	-0.783626 	0.440406 16.8841 	-0.831859 	0.460831 16.8281 	-0.894404 	0.479961 16.7139 	-0.962348 	0.509486 16.652 	-1.0466 	0.53568 16.5907 	-1.13122 	0.561783 16.525 	-1.22027 	0.587225 16.4376 	-1.30448 	0.621004 16.3395 	-1.44563 	0.656765 16.2779 	-1.5883 	0.686358 16.2213 	-1.72232 	0.717462 16.1663 	-1.85726 	0.748156 16.0882 	-2.01596 	0.784733 16.0754 	-2.08465 	0.802344 16.0667 	-2.16152 	0.813103 16.0585 	-2.23845 	0.823678 16.0508 	-2.31545 	0.834067 16.0459 	-2.36785 	0.841006 16.0284 	-2.51384 	0.863977 16.0125 	-2.65968 	0.886452 15.9982 	-2.80537 	0.908431 15.9755 	-2.9553 	0.927858 15.9205 	-3.16566 	0.96065 16.1182 	-3.38755 	0.906882 16.0431 	-3.71449 	0.9655 16.2076 	-4.07842 	0.91545 16.4953 	-4.379 	0.797082 16.8502 	-4.62419 	0.637739 17.025 	-4.73977 	0.542056 17.1912 	-4.82855 	0.462211 17.3571 	-4.91499 	0.383558 17.522 	-4.99691 	0.307457 17.7111 	-5.10372 	0.224771 17.7355 	-5.10366 	0.213373 17.7576 	-5.10307 	0.20278 17.7781 	-5.10212 	0.192731 17.7986 	-5.10118 	0.182682 17.8193 	-5.10025 	0.172532 18.0493 	-5.1559 	0.0553961 18.2581 	-5.21863 	-0.0537552 18.4715 	-5.25835 	-0.168497 18.6866 	-5.29451 	-0.284531 18.9119 	-5.27562 	-0.413684 19.2089 	-5.15777 	-0.607974 19.4938 	-5.0853 	-0.806027 19.733 	-4.97952 	-0.978478 19.9309 	-4.84422 	-1.12787 20.1083 	-4.68427 	-1.27233 20.3647 	-4.45776 	-1.51445 20.5263 	-4.24202 	-1.67269 20.691 	-4.02949 	-1.83246 20.8251 	-3.81897 	-1.96493 21.0158 	-3.3354 	-2.13365 21.0169 	-3.16584 	-2.24402 21.0426 	-2.86198 	-2.31808 21.0925 	-2.58213 	-2.39752 21.1474 	-2.30614 	-2.48044 21.2044 	-2.00061 	-2.56342 21.1993 	-1.879 	-2.5783 21.1941 	-1.7769 	-2.58418 21.1893 	-1.67484 	-2.59045 21.185 	-1.57282 	-2.5971 21.1767 	-1.35582 	-2.61209 21.1724 	-1.16561 	-2.63133 21.1207 	-0.985802 	-2.6347 21.0681 	-0.805882 	-2.63761 21.0167 	-0.625379 	-2.64077 20.9692 	-0.448594 	-2.64238 20.9512 	-0.406031 	-2.63652 20.9328 	-0.359714 	-2.6298 20.9146 	-0.31326 	-2.62311 20.8964 	-0.266668 	-2.61644 20.8885 	-0.246546 	-2.61358 20.7921 	0.00260068 	-2.57696 20.6975 	0.254649 	-2.54092 20.6047 	0.509628 	-2.50548 20.521 	0.769969 	-2.47985 20.4394 	0.97572 	-2.48265 20.2645 	1.17301 	-2.40441 20.1206 	1.28078 	-2.36841 19.9855 	1.36504 	-2.32949 19.851 	1.44996 	-2.29044 19.6339 	1.43159 	-2.29114 19.5278 	1.66938 	-2.24376 19.3935 	1.73979 	-2.24077 19.2593 	1.81021 	-2.23796 19.1252 	1.88065 	-2.23531 18.9693 	1.92398 	-2.24192 18.9329 	1.9458 	-2.22319 18.8878 	1.95997 	-2.21776 18.8427 	1.97414 	-2.21235 18.7977 	1.98792 	-2.20694 18.7546 	1.98679 	-2.20133 18.6493 	2.00879 	-2.18827 18.5441 	2.03087 	-2.17523 18.4389 	2.05305 	-2.16223 18.3336 	2.07532 	-2.14925 18.1885 	1.97063 	-2.0891 18.0678 	2.17996 	-2.11066 17.9207 	2.25145 	-2.08863 17.7736 	2.32322 	-2.06671 17.6202 	2.40099 	-2.03997 17.3332 	2.3212 	-1.86621 17.2746 	2.32872 	-1.9286 17.1244 	2.2901 	-1.8978 16.9474 	2.17662 	-1.8434 16.702 	2.00226 	-1.69639 16.3924 	1.76943 	-1.46203 16.3397 	1.85939 	-1.50306 16.2422 	1.89542 	-1.50938 16.0503 	1.81393 	-1.44257 15.5827 	1.70416 	-1.13837 15.0804 	1.56757 	-0.805344 15.1599 	1.31081 	-1 15.17 	1.08806 	-1.13698 14.9421 	0.974862 	-1.07337 14.3725 	1.10754 	-0.748241 13.7999 	1.25152 	-0.419887 13.8471 	0.665924 	-0.649812 13.8957 	0.0655234 	-0.881034 13.6001 	-0.16188 	-0.852824 13.0422 	-0.0743296 	-0.734904 12.4674 	0.0272212 	-0.606108 12.3318 	-0.613903 	-0.802723 12.1918 	-1.23059 	-0.981602 11.8862 	-1.53018 	-0.94281 11.4125 	-1.56833 	-0.762893 10.8052 	-1.4791 	-0.496075 10.7463 	-2.50019 	-0.980535 8.1785 	-1.90192 	-0.743156 5.33203 	-1.12367 	-0.42707 3.69102 	-0.680668 	-0.249238 3.10271 	-0.612689 	-0.211407 2.51584 	-0.547467 	-0.17316 1.94463 	-0.489235 	-0.136114 1.39999 	-0.442707 	-0.1011 1.07161 	-0.572901 	-0.054823 1.43645 	-1.09011 	-0.0169247 1.60694 	-1.33674 	0.00165145 1.43748 	-1.19578 	0.0014773 1.26802 	-1.05481 	0.00130315 0 	0 	0