# vtk DataFile Version 2.0
track0
ASCII
DATASET POLYDATA
POINTS 19307 float
-1.001 -0.05 0.316889
-1.0008 -0.0500006 0.316891
-1.00059 -0.0500012 0.316892
-1.00039 -0.0500018 0.316893
-1.00019 -0.0500024 0.316894
-0.999982 -0.050003 0.316895
-0.987481 -0.0500401 0.316959
-0.97498 -0.050079 0.317025
-0.962479 -0.0501188 0.31709
-0.949978 -0.0501595 0.317157
-0.937477 -0.0502011 0.317223
-0.924975 -0.0502423 0.31729
-0.912473 -0.0502855 0.317357
-0.89997 -0.0503306 0.317425
-0.887468 -0.0503775 0.317494
-0.874966 -0.0504261 0.317563
-0.862462 -0.0504748 0.317632
-0.849959 -0.050525 0.317701
-0.837455 -0.0505778 0.317771
-0.824951 -0.0506333 0.317842
-0.812448 -0.0506914 0.317912
-0.79995 -0.0507515 0.317983
-0.787453 -0.0508151 0.318055
-0.774955 -0.0508826 0.318126
-0.762458 -0.0509539 0.318197
-0.749961 -0.051029 0.318269
-0.737547 -0.0511047 0.31834
-0.725134 -0.0511824 0.318411
-0.712721 -0.0512655 0.318481
-0.700308 -0.0513541 0.318551
-0.687895 -0.0514481 0.318621
-0.681911 -0.0514959 0.318655
-0.675927 -0.0515457 0.318688
-0.669943 -0.0515974 0.318721
-0.663958 -0.0516512 0.318754
-0.657913 -0.0517075 0.318787
-0.651731 -0.0517673 0.31882
-0.645548 -0.0518291 0.318853
-0.639366 -0.0518931 0.318886
-0.633184 -0.0519593 0.318919
-0.627001 -0.0520263 0.318952
-0.61425 -0.0521659 0.319019
-0.601499 -0.0523113 0.319085
-0.588748 -0.0524719 0.31915
-0.575997 -0.0526481 0.319214
-0.563245 -0.0528399 0.319276
-0.550725 -0.0530397 0.319337
-0.538206 -0.0532614 0.319397
-0.525687 -0.0535095 0.319455
-0.513168 -0.0537843 0.319511
-0.500645 -0.0540863 0.319564
-0.488224 -0.0544038 0.319616
-0.475804 -0.0547655 0.31967
-0.463386 -0.0551846 0.319721
-0.45097 -0.0556622 0.319769
-0.438538 -0.0562007 0.319813
-0.432347 -0.0565016 0.319838
-0.426157 -0.0568157 0.319866
-0.419968 -0.0571589 0.319894
-0.413781 -0.0575323 0.31992
-0.407583 -0.0579373 0.319946
-0.401362 -0.058378 0.319968
-0.395145 -0.058865 0.319996
-0.388933 -0.0594061 0.320022
-0.382725 -0.0600019 0.320047
-0.376477 -0.0606576 0.320071
-0.371933 -0.0611745 0.320091
-0.367395 -0.06174 0.320113
-0.362864 -0.0623582 0.320138
-0.358341 -0.0630379 0.320164
-0.357244 -0.0632165 0.32017
-0.354828 -0.0636169 0.320184
-0.352414 -0.0640309 0.320198
-0.350003 -0.0644585 0.320211
-0.347594 -0.0648995 0.320223
-0.345163 -0.0653588 0.320236
-0.338842 -0.0665888 0.32027
-0.332545 -0.0679317 0.320298
-0.326278 -0.0694117 0.320324
-0.320045 -0.0710246 0.320341
-0.313555 -0.0728347 0.320348
-0.310349 -0.0737785 0.320345
-0.307142 -0.074721 0.320342
-0.303938 -0.0756732 0.320336
-0.30074 -0.0766444 0.320327
-0.297521 -0.0776411 0.320315
-0.296776 -0.0778809 0.320312
-0.296031 -0.0781215 0.320308
-0.295287 -0.0783616 0.320304
-0.294542 -0.078601 0.320299
-0.293795 -0.0788399 0.320294
-0.291438 -0.0795922 0.320277
-0.289081 -0.0803426 0.320256
-0.286722 -0.081091 0.320233
-0.284363 -0.0818375 0.320208
-0.28201 -0.0825794 0.320181
-0.278827 -0.083575 0.320143
-0.275632 -0.0845292 0.320097
-0.272426 -0.0854438 0.320044
-0.269209 -0.0863237 0.319986
-0.266105 -0.0871431 0.319925
-0.262998 -0.0879358 0.319861
-0.259881 -0.0886875 0.319789
-0.256753 -0.0893914 0.319713
-0.253613 -0.0900381 0.319635
-0.250592 -0.090605 0.319555
-0.247522 -0.0910781 0.319471
-0.244445 -0.0915022 0.319385
-0.241361 -0.0918683 0.319297
-0.23827 -0.0921773 0.319206
-0.235285 -0.0924204 0.319118
-0.232058 -0.092611 0.31902
-0.228828 -0.0927671 0.318923
-0.225597 -0.0928801 0.318824
-0.222365 -0.0929494 0.318724
-0.219139 -0.0929731 0.318623
-0.215946 -0.0929455 0.318522
-0.212753 -0.0928942 0.31842
-0.209561 -0.0928162 0.318319
-0.20637 -0.0927131 0.318216
-0.203165 -0.0925837 0.318112
-0.20011 -0.0924383 0.318011
-0.197056 -0.0922879 0.31791
-0.194002 -0.0921292 0.317809
-0.190948 -0.0919621 0.317706
-0.187891 -0.0917846 0.317604
-0.184891 -0.0915971 0.317502
-0.181892 -0.0913923 0.3174
-0.178894 -0.0911732 0.317299
-0.175898 -0.0909394 0.317197
-0.172893 -0.0906898 0.317094
-0.169846 -0.090432 0.316989
-0.166799 -0.0901607 0.316885
-0.163753 -0.0898891 0.31678
-0.160706 -0.0896171 0.316674
-0.157657 -0.0893446 0.316566
-0.154537 -0.0890663 0.316453
-0.151418 -0.0887709 0.316341
-0.1483 -0.0884796 0.316228
-0.14518 -0.0881933 0.316114
-0.142061 -0.0879122 0.316
-0.138603 -0.0876169 0.31588
-0.135142 -0.087347 0.315764
-0.131681 -0.0870929 0.315645
-0.128218 -0.086855 0.315523
-0.124775 -0.0866405 0.315404
-0.121532 -0.0864472 0.315299
-0.118287 -0.0863042 0.315184
-0.115041 -0.0861821 0.315058
-0.111795 -0.0860789 0.314922
-0.10857 -0.0859957 0.314777
-0.105314 -0.0859278 0.314616
-0.102059 -0.0858882 0.314438
-0.098804 -0.0858617 0.314244
-0.0955504 -0.0858486 0.314033
-0.0922853 -0.0858499 0.3138
-0.089069 -0.0858594 0.31354
-0.0858544 -0.0858801 0.313261
-0.0826416 -0.0859055 0.312962
-0.0794306 -0.0859379 0.312646
-0.0781161 -0.0859541 0.312509
-0.0777359 -0.0859591 0.312468
-0.0773558 -0.0859643 0.312428
-0.0769757 -0.0859695 0.312387
-0.0765957 -0.0859749 0.312345
-0.0762156 -0.0859805 0.312304
-0.0734211 -0.0860219 0.311997
-0.0706283 -0.0860726 0.311676
-0.0678373 -0.0861335 0.311342
-0.0650482 -0.086205 0.310994
-0.0622481 -0.086285 0.310628
-0.0593139 -0.0863878 0.310221
-0.056382 -0.0865057 0.309801
-0.0534527 -0.086654 0.309373
-0.0505269 -0.0868318 0.308933
-0.0475555 -0.087044 0.308471
-0.044312 -0.0873449 0.307944
-0.0410761 -0.0876838 0.307395
-0.0378524 -0.0880943 0.306822
-0.0346465 -0.0886007 0.306227
-0.0312862 -0.0892611 0.305497
-0.0287749 -0.0898797 0.304826
-0.0263066 -0.0905717 0.304073
-0.0238387 -0.0912798 0.303333
-0.0213506 -0.091984 0.30266
-0.0204506 -0.0922335 0.302462
-0.018661 -0.092725 0.302116
-0.0168817 -0.0932818 0.301819
-0.0151132 -0.0938694 0.301518
-0.0133682 -0.0945201 0.301209
-0.0114106 -0.0954646 0.300826
-1.001 -0.05 0.369521
-1.0008 -0.0500006 0.369522
-1.00059 -0.0500012 0.369524
-1.00039 -0.0500018 0.369525
-1.00019 -0.0500024 0.369526
-0.999983 -0.0500029 0.369527
-0.987482 -0.0500392 0.369604
-0.974981 -0.0500785 0.36968
-0.96248 -0.0501187 0.369757
-0.949978 -0.0501599 0.369835
-0.937477 -0.0502021 0.369914
-0.924975 -0.0502424 0.369994
-0.912473 -0.0502852 0.370075
-0.899971 -0.0503298 0.370157
-0.887469 -0.0503762 0.370239
-0.874967 -0.0504243 0.370322
-0.862469 -0.0504722 0.370407
-0.849972 -0.0505226 0.370492
-0.837474 -0.0505756 0.370578
-0.824977 -0.0506312 0.370664
-0.812479 -0.0506895 0.370752
-0.800059 -0.0507479 0.37084
-0.787639 -0.0508094 0.370928
-0.775218 -0.0508747 0.371017
-0.762798 -0.0509435 0.371107
-0.750377 -0.0510161 0.371198
-0.738235 -0.0510885 0.371288
-0.726092 -0.0511648 0.371377
-0.713949 -0.0512462 0.371468
-0.701806 -0.0513329 0.371559
-0.689663 -0.0514248 0.37165
-0.676973 -0.0515232 0.371747
-0.664282 -0.0516274 0.371844
-0.651591 -0.0517395 0.371942
-0.638901 -0.0518595 0.372041
-0.62621 -0.0519876 0.372142
-0.613705 -0.0521205 0.372243
-0.601201 -0.0522655 0.372345
-0.588696 -0.0524241 0.372448
-0.576192 -0.0525964 0.372553
-0.563687 -0.0527826 0.372659
-0.551184 -0.0529749 0.372768
-0.53868 -0.0531791 0.37288
-0.526178 -0.0534078 0.372997
-0.513676 -0.0536613 0.373117
-0.50117 -0.05394 0.373241
-0.488719 -0.0542414 0.373369
-0.476268 -0.0545912 0.373504
-0.46382 -0.0549927 0.373649
-0.451373 -0.0554468 0.373802
-0.438911 -0.0559553 0.373966
-0.43269 -0.0562335 0.374055
-0.42647 -0.0565277 0.374151
-0.420252 -0.0568471 0.37425
-0.414035 -0.0571926 0.374354
-0.407807 -0.0575651 0.374462
-0.40156 -0.0579664 0.374576
-0.395316 -0.0584118 0.374696
-0.389075 -0.0589024 0.374824
-0.382838 -0.0594387 0.374959
-0.376566 -0.0600252 0.375101
-0.375358 -0.0601465 0.375131
-0.374151 -0.0602707 0.375161
-0.372945 -0.0603976 0.375193
-0.371738 -0.0605285 0.375225
-0.370818 -0.060632 0.375249
-0.366163 -0.0611666 0.375376
-0.361512 -0.0617428 0.375506
-0.356867 -0.0623606 0.37564
-0.352228 -0.0630198 0.375778
-0.350432 -0.0632921 0.375832
-0.349384 -0.0634551 0.375865
-0.348336 -0.0636203 0.375897
-0.347288 -0.0637876 0.37593
-0.34624 -0.0639571 0.375963
-0.34519 -0.0641294 0.375997
-0.338824 -0.0651852 0.3762
-0.332482 -0.0663695 0.376405
-0.326165 -0.0676865 0.376612
-0.319878 -0.0691336 0.376822
-0.313297 -0.0707891 0.377044
-0.310108 -0.0716341 0.377138
-0.306921 -0.0724905 0.377225
-0.303739 -0.0733617 0.377304
-0.30056 -0.0742474 0.377376
-0.29735 -0.0751686 0.377443
-0.294643 -0.075969 0.377497
-0.291939 -0.0767807 0.377541
-0.289237 -0.0775971 0.377576
-0.286536 -0.0784204 0.377602
-0.284102 -0.0791689 0.377617
-0.28359 -0.0793276 0.377618
-0.283078 -0.0794864 0.37762
-0.282566 -0.0796453 0.377621
-0.282054 -0.0798044 0.377622
-0.281542 -0.0799638 0.377622
-0.278203 -0.0810034 0.377625
-0.274859 -0.0820284 0.377611
-0.271511 -0.0830403 0.37758
-0.26816 -0.0840398 0.377533
-0.26484 -0.0850096 0.377471
-0.261668 -0.0859287 0.377397
-0.258478 -0.0867827 0.377304
-0.255276 -0.0875897 0.377193
-0.252064 -0.0883511 0.377065
-0.248946 -0.0890261 0.37692
-0.245854 -0.0896701 0.376758
-0.242752 -0.0902554 0.376579
-0.239641 -0.0907824 0.376384
-0.236522 -0.0912638 0.376176
-0.233449 -0.0916921 0.375958
-0.231055 -0.0919687 0.375776
-0.228661 -0.0922291 0.37559
-0.226263 -0.0924567 0.375401
-0.223863 -0.0926512 0.375207
-0.221765 -0.0927916 0.375035
-0.221242 -0.0928202 0.374992
-0.220718 -0.0928472 0.374948
-0.220194 -0.0928726 0.374904
-0.219671 -0.0928965 0.37486
-0.219148 -0.0929188 0.374815
-0.216025 -0.0930435 0.37455
-0.212901 -0.0931322 0.374286
-0.209776 -0.0931852 0.374024
-0.20665 -0.0932015 0.373765
-0.203546 -0.0931797 0.373508
-0.200424 -0.0931274 0.373256
-0.197302 -0.0930477 0.373005
-0.194182 -0.0929452 0.372755
-0.191061 -0.0928193 0.372509
-0.187942 -0.0926693 0.372264
-0.184863 -0.0925125 0.372026
-0.181785 -0.0923304 0.371786
-0.178709 -0.092128 0.371547
-0.175634 -0.0919047 0.371308
-0.172547 -0.0916588 0.371068
-0.169467 -0.0914128 0.370841
-0.166389 -0.0911474 0.370603
-0.163311 -0.0908756 0.370366
-0.160234 -0.0905972 0.370131
-0.157146 -0.0903155 0.369896
-0.154056 -0.0900368 0.369668
[...]
POINT_DATA 19307
 FIELD attributes 2
p 1 19307 float
18.3567 18.3628 18.369 18.3751 18.3813 18.3875 18.6563 18.9201 19.1838 19.4475 19.7589 20.1467 20.5314 20.9162 21.3009 21.6955 22.1482 22.5872 23.0261 23.465 23.9035 24.425 24.9423 25.4595 25.9768 26.5096 27.1671 27.7944 28.4216 29.0487 29.6752 30.0627 30.4463 30.83 31.2136 31.6012 31.9985 32.3958 32.793 33.2128 33.6363 34.7705 35.7928 36.8147 37.8362 38.8763 40.3769 41.7554 43.1332 44.5102 45.8944 48.1934 50.2125 52.2285 54.2399 57.0997 58.3679 59.6258 60.9132 62.1937 63.6977 65.5859 66.8285 68.049 69.2438 70.5011 71.4762 71.8657 72.4842 72.7351 72.7694 72.8317 72.8852 72.9297 72.9654 73.0091 71.5993 71.1518 68.1175 62.4391 55.7678 52.1769 48.247 44.1278 40.1475 35.3024 33.7499 32.1611 30.5628 28.9644 27.3639 22.9791 18.5156 13.8734 9.26636 4.8492 -1.29942 -7.79839 -16.0152 -23.8247 -31.3692 -38.7536 -44.6647 -48.605 -52.8059 -58.0025 -60.6195 -62.461 -64.2344 -66.1445 -68.1443 -65.5149 -62.6103 -59.8662 -57.8225 -54.2728 -47.3595 -41.541 -36.1029 -30.6846 -25.0087 -19.1348 -14.956 -10.7757 -6.51372 -3.97024 -0.366517 2.12125 4.59981 7.0775 8.42736 11.9059 14.3415 16.7772 19.2427 21.0408 24.6224 27.433 30.3211 33.2078 37.1219 40.5687 43.9255 47.2768 51.0378 55.3591 57.5055 59.7311 62.135 64.5257 66.8342 68.653 70.266 71.8643 73.0574 73.6277 74.4872 75.7916 77.4325 79.062 79.7248 79.9235 80.1221 80.3205 80.5189 80.7122 83.3607 85.9432 88.5264 91.6723 94.8525 100.2 104.869 108.609 112.327 115.17 121.853 126.975 131.07 133.484 134.084 138.791 140.46 141.235 142.072 142.408 144.091 145.894 147.695 149.486 146.012
18.1817 18.1878 18.1939 18.1999 18.206 18.2121 18.4663 18.7579 19.0494 19.3333 19.6875 20.0815 20.4674 20.8536 21.2398 21.6293 22.0842 22.525 22.9657 23.4063 23.8482 24.3827 24.9014 25.4202 25.9389 26.4548 27.1059 27.7342 28.3624 28.9906 29.6216 30.4624 31.2533 32.044 32.8347 33.6322 34.682 35.6989 36.7156 37.7321 38.8213 40.3605 41.6979 43.0342 44.3694 45.7014 47.71 49.6217 51.5306 53.4363 56.2652 57.6873 58.9114 60.1175 61.3175 62.5392 63.8875 65.1135 66.3276 67.5295 69.2082 69.7613 70.3368 70.6607 70.8432 70.9385 71.1869 71.3999 71.5775 71.8209 71.9761 72.0515 72.1256 72.1985 72.2703 72.3374 71.3904 70.469 69.4775 68.4175 63.7966 61.3805 58.5402 55.685 52.6325 49.2608 44.9923 40.8062 36.6442 32.4756 28.7103 27.9694 27.2284 26.4872 25.7819 25.2377 19.5607 12.5971 4.8574 -0.793165 -7.68588 -12.6304 -17.7697 -23.0143 -31.4877 -37.8918 -42.9711 -45.956 -48.02 -50.2712 -54.5337 -53.2633 -52.7327 -52.3257 -52.0383 -51.893 -51.8936 -51.9 -51.9121 -51.9301 -51.4227 -46.9192 -42.8346 -38.8217 -34.8835 -30.8079 -25.4192 -21.088 -16.7618 -12.4409 -9.12119 -5.71087 -2.88521 -0.0176942 2.84815 4.56875 7.51854 9.94959 12.3786 14.973 17.1407 20.1152 22.692 25.3028 27.9131 30.5375 34.1082 37.3951 40.7207 44.6306 50.1131 53.217 56.798 60.4948 64.9323 71.0101 74.6476 78.1664 81.1908 83.756 85.8815 86.7326 87.8796 89.1876 90.6393 91.5987 92.3442 93.9589 95.614 97.304 99.2139 102.662 105.406 107.996 110.415 111.893 116.971 116.337 115.159 114.389 114.018 114.019 114.021 114.022 114.061 114.169 114.415 114.654 114.887 115.109 115.466 115.306 115.146 114.986 114.649 113.464 110.951 108.261 90.2149 92.2108 93.9482 88.9046 88.2804 90.7847 92.5399 80.0172 66.816 53.3089 60.616 69.3075 72.899 75.7108 76.7266 76.1937 75.6382 76.8067 76.6513 75.3671 73.8739 72.4251 72.0907 71.7553 71.4189 71.1308 70.8506 62.9476 55.7459 50.0623 47.0344 47.0186 41.057 41.0776 42.8169 46.1484 54.6016 52.2526 52.911 54.3743 55.8483 57.79 58.5614 59.3263 60.2345 60.8485 58.9866 59.227 58.4532 58.4685 58.4719 59.1873 62.4292 64.8295 67.2354 69.3516 70.9122 71.4389 71.6907 71.7881 71.8831 71.9813 73.4056 74.8506 76.7813 77.906 78.5127 81.6476 83.4177 85.1511 85.7964 84.8552 84.2863 83.7171 83.6233 83.6586 83.6861 84.4114 84.5719 84.52 83.5826 81.761 81.2413 80.1753 80.3242 80.743 81.253 81.3107 81.3639 81.4124 81.5457 81.7796 82.2918 82.603 82.7689 82.8369 82.6309
18.0949 18.101 18.1072 18.1134 18.1195 18.1257 18.3878 18.6799 18.9457 19.2105 19.5584 19.9586 20.3462 20.7337 21.1196 21.507 21.9613 22.4001 22.8398 23.2794 23.7163 24.2456 24.762 25.2783 25.789 26.307 26.9556 27.5902 28.2077 28.8252 29.4653 30.2848 31.0622 31.8394 32.6164 33.4106 34.4808 35.449 36.4169 37.3845 38.3646 39.8256 41.06 42.2934 43.5258 44.8533 46.9432 48.6119 50.2655 51.9167 54.4487 55.361 56.4148 57.5791 58.741 59.9277 61.6573 62.6732 63.6798 64.7299 66.1122 67.3978 68.1675 68.9127 69.6334 70.6457 70.6901 70.5946 70.4911 70.3796 70.2984 70.1873 70.0547 69.9006 69.8915 69.7102 66.7233 66.5896 63.0633 57.9115 51.2329 48.4052 45.1583 41.8609 38.4808 34.2995 33.9929 33.6088 33.1724 32.7359 32.295 27.9687 24.2419 20.2349 16.1555 11.4252 6.66606 0.368256 -4.25648 -7.379 -11.7858 -16.0584 -18.9498 -21.9269 -24.4751 -29.6626 -26.9349 -27.0862 -27.7288 -28.4745 -29.6431 -28.8873 -28.7054 -28.5308 -28.3634 -28.0227 -27.7314 -26.2146 -24.6693 -23.1507 -21.7284 -21.2221 -20.6901 -20.1588 -19.628 -19.3997 -16.5815 -13.7939 -11.038 -8.87928 -7.46874 -1.96196 1.511 4.74529 7.97814 9.97097 14.4213 16.632 18.8322 21.0218 23.4915 24.4283 25.1854 25.942 26.6959 27.3739 29.3028 31.2304 33.1565 35.0813 36.9214 40.139 42.9484 45.7522 48.7238 52.0421 55.2844 58.4614 61.4426 64.5082 67.6473 70.5366 73.5103 76.6588 81.5209 86.5367 88.8534 91.561 95.2694 100.606 105.936 109.132 112.276 116.463 120.371 124.421 129.679 134.691 138.489 142.401 146.813 153.12 153.332 152.943 152.839 153.389 153.921 154.436 154.922 153.318 154.18 154.357 153.921 153.485 145.916
17.5587 17.5646 17.5705 17.5764 17.5823 17.5882 17.845 18.1017 18.3583 18.6149 18.9382 19.3159 19.6908 20.0657 20.4406 20.8214 21.2441 21.6725 22.1009 22.5291 22.95 23.4564 23.9535 24.4505 24.9512 25.4561 26.0686 26.6612 27.2633 27.8654 28.4667 29.1916 29.9093 30.627 31.3302 32.0326 32.9173 33.7575 34.6184 35.4792 36.3478 37.4064 38.4453 39.484 40.483 41.4792 42.784 43.9649 45.2047 46.4437 47.7185 49.2261 50.6355 52.0369 53.3946 54.6847 56.5047 57.9818 59.7337 61.3396 63.1887 63.6752 64.1088 64.5405 64.9705 65.3379 65.4978 65.6574 65.8168 65.9913 66.1837 66.8128 67.2944 67.8081 68.3291 68.6141 68.6594 68.7047 68.75 68.7952 68.8298 69.0172 69.1885 69.3513 69.5056 69.8708 69.3966 69.0128 68.5896 68.0307 67.0194 66.6155 65.6575 63.9975 62.6013 61.4077 61.0072 60.3891 59.796 59.3525 58.892 58.7488 58.6055 58.4619 58.3182 58.197 57.4897 56.7742 56.0551 55.2239 54.8752 54.3579 53.8139 53.2381 52.4944 51.6959 51.8478 51.8694 51.5733 51.4209 51.2962 51.4575 51.4127 51.1801 51.291 50.9573 51.4348 51.5919 51.5682 51.4179 51.2582 51.2568 51.2555 51.2541 51.2527 51.251 50.9405 51.2272 51.5616 51.8443 51.3361 51.5349 51.6951 51.6084 51.1477 50.6205 50.9532 51.1366 50.8535 50.3002 49.6127 49.4638 49.1381 48.8081 48.5918 48.4143 48.4279 48.4652 48.5024 48.5397 48.5767 48.7568 48.5646 48.3548 48.1437 47.8016 48.203 48.4452 48.6177 48.3158 48.2246 48.904 48.8916 48.7584 49.2282 49.4754 50.3987 50.2983 49.8891 49.4487 49.3971 49.6269 48.5619 47.4757 46.3683 45.5538 44.2528 42.9331 41.5952 40.1993 38.4945 33.6059 27.7015 21.4994 15.2774 8.98485 6.93645 4.16518 1.28106 -1.60767 -4.26914 -16.7412 -22.5668 -28.4435 -34.3684 -40.6252 -51.1511 -52.7776 -54.6207 -56.675 -61.006 -61.8385 -62.6828 -63.5388 -64.4063 -65.3818 -64.8694 -64.3604 -64.5565 -64.9624 -66.084 -64.3679 -61.0959 -56.955 -52.7962 -48.4389 -45.2417 -41.2389 -37.0084 -33.3758 -31.7276 -30.8405 -30.2292 -29.5037 -28.7814 -27.9549 -27.8606 -27.7664 -27.6723 -27.5782 -27.5189 -27.1607 -26.8188 -26.4859 -26.2787 -26.8977 -25.6661 -24.581 -25.4755 -24.9138 -24.5067 -19.9658 -15.4844 -14.1408 -14.5565 -14.0747 -12.6712 -9.73656 -7.96552 -6.19476 -3.96209 -3.01042 -2.33375 -1.65723 -0.980859 -0.52671 0.327496 0.8282 1.23469 1.64148 2.01933 2.09057 2.14154 2.19251 2.24348 2.2941 2.95173 3.60959 4.26768 4.92601 5.50312 7.3004 8.77394 10.2306 11.6864 12.797 16.0788 19.057 22.0337 24.7425 26.8791 32.6403 36.5093 41.0608 45.6657 48.4171 56.2145 60.8277 65.8511 70.7745 73.0784 80.9738 82.2485 83.34 82.5012 81.8258 82.2871 82.3528 82.3143 82.7926 83.1187 83.1933 83.2671 83.3403 83.4128 83.413 84.2277 84.7735 85.2663 85.1943 82.344 84.0743 84.7809 83.6582 82.3446 80.9465 83.0401 84.8832 84.13 81.9653 78.4958
16.9621 16.967 16.9718 16.9767 16.9815 16.9863 17.2431 17.4905 17.7379 17.9853 18.2868 18.6579 19.0147 19.3715 19.7283 20.0942 20.5183 20.9339 21.3494 21.7648 22.18 22.4287 22.6766 22.9244 23.1722 23.3952 23.6352 23.8752 24.1152 24.3598 24.6041 25.1882 25.7601 26.3319 26.9036 27.475 28.1597 28.8434 29.527 30.2105 30.9045 31.7498 32.5707 33.3914 34.212 35.0335 36.0386 37.0322 38.0256 39.0188 40.0221 41.2921 42.5006 43.7088 44.9166 46.1404 47.7054 49.1579 50.6066 52.0545 53.5348 55.5954 57.3274 59.0587 60.7891 62.5914 64.8235 66.7711 68.7138 70.8116 73.3813 75.1153 76.4206 77.9528 79.4933 80.7817 81.6968 82.609 83.5185 84.4252 85.2524 86.2607 87.3419 88.0986 88.4466 89.1462 88.8591 88.2275 87.729 86.6497 85.5724 84.2342 82.5486 79.9302 75.6692 70.6325 68.5046 66.5016 64.8046 62.6375 59.7665 57.9175 54.6229 51.4684 48.3133 44.1574 43.9516 43.7458 43.5399 43.3341 43.1519 39.8968 36.5491 33.1849 29.8047 27.0166 24.8499 22.9065 20.8794 18.8313 17.3927 17.2567 17.1395 17.0078 16.7043 16.3969 16.5866 16.6864 16.7808 16.9625 17.168 17.2366 17.3046 17.3718 17.4384 17.5019 17.7658 18.0068 18.2451 18.4794 18.6676 19.1017 19.5368 19.9293 20.2519 20.5925 21.2278 21.7786 22.4533 23.2091 23.8715 24.8419 26.0147 26.8128 27.4306 28.1829 29.5645 30.6337 31.5276 32.5559 33.3463 35.6644 36.8864 37.9454 38.9237 39.7225 41.2654 42.1573 43.022 43.8593 44.3679 45.317 46.213 46.5567 46.7942 46.6883 49.9948 51.9459 54.1367 53.7017 52.027 54.1573 55.8565 54.712 53.5317 49.7594 52.2144 51.7938 49.6564 47.5018 45.7563 40.3146 32.9699 20.4341 6.39132 -4.75548 -6.07145 -7.393 -8.42795 -8.98355 -9.55962 -11.1386 -14.7748 -18.4222 -21.9659 -24.6808 -25.3449 -26.3214 -27.369 -28.4343 -29.5089 -28.7438 -28.5965 -29.1403 -29.6852 -30.211 -33.0632 -37.5059 -41.5479 -42.9916 -45.1045 -44.3968 -44.1433 -44.1924 -44.5892 -46.0226 -45.7991 -46.5193 -47.4854 -48.4515 -51.0367
16.5278 16.5309 16.5341 16.5372 16.5404 16.5435 16.762 17.0251 17.2881 17.5418 17.8785 18.2301 18.5834 18.9328 19.2822 19.6478 20.0709 20.4744 20.8779 21.2814 21.688 22.171 22.6391 23.1072 23.5752 24.046 24.6181 25.1752 25.7323 26.2893 26.8569 27.5444 28.2143 28.8841 29.5537 30.2246 31.055 31.8674 32.6795 33.4915 34.3191 35.3435 36.3426 37.3415 38.3401 39.3356 40.4649 41.5806 42.696 43.8112 44.795 44.9702 45.1455 45.3208 45.496 45.669 47.3093 48.8955 50.4812 52.0664 53.6461 55.7679 57.8249 59.8812 61.937 63.9756 67.0376 69.7611 72.4772 75.19 77.8443 82.2944 86.3193 90.3286 94.3212 100.49 100.74 100.99 101.24 101.489 101.723 104.421 106.885 109.299 111.687 113.984 118.538 122.89 125.206 127.331 131.649 133.443 134.661 135.224 135.915 136.4 137.247 136.568 135.571 134.802 134.402 134.064 133.694 132.984 131.369 128.684 127.957 127.227 126.264 125.247 124.199 119.798 114.038 103.462 92.6179 80.4937 80.3123 80.1307 79.3147 78.3237 77.3367 56.704 30.709 4.61735 -8.05085 -22.1137 -49.6614 -52.9023 -56.2824 -50.0126 -41.0968 -42.2965 -43.5078 -44.9731 -49.2055 -50.9393 -44.695 -38.7374 -32.9362 -27.2986 -24.6251 -18.6002 -14.5809 -12.2317 -11.2789 -8.92579 -5.89693 -4.23619 -3.37495 -2.69763 -2.64589 -2.08138 -1.64071 -1.34967 -1.07106 -0.729949 -1.06011 -0.674655 -0.290458 0.130954 1.7001 1.21734 1.60245 1.9568 2.25653 2.78961 1.9066 1.8341 1.71862 1.57591 2.53343 -0.0157456 -0.52869 -1.09534 -1.66545 -1.75423 -3.38445 -6.75967 -8.62219 -10.9381 -14.1207 -14.899 -16.525 -18.7205 -20.794 -23.0376 -22.9876 -22.9786 -22.9755 -22.9733 -22.9721 -23.1278 -23.557 -23.7235 -24.0305 -24.1811 -25.4439 -26.9511 -28.7701 -30.9033 -33.7657 -33.7768 -33.7872 -33.7967 -33.8063 -33.8158 -36.898 -39.764 -40.6274 -41.5507 -42.4716 -43.6727 -44.8009 -45.9728 -47.1284 -48.291 -50.2726 -52.2773 -53.868 -53.8534 -53.8422 -54.14 -54.4598 -54.6263 -54.5183 -54.403 -54.7828 -54.7802 -54.8183 -55.0945 -55.3547 -55.7019 -56.0564 -56.146 -55.9611 -55.7681 -56.067 -56.3704 -56.7082 -57.0584 -57.3926 -57.5201 -57.5493 -57.708 -57.9132 -57.9219 -58.1564 -58.3623 -58.2392 -57.8996 -57.5775 -57.8078 -57.8082 -57.7771 -57.7457 -58.0765 -59.1783 -60.2765 -60.6598 -60.4107 -60.1738 -60.668 -61.1625 -61.5526 -61.8844 -62.2172 -64.2566 -65.9448 -69.1284 -69.5551 -69.9997 -70.3586 -70.7184 -70.3058 -69.679 -69.0571 -67.5931 -66.1447 -65.0333 -64.5934 -64.0063 -60.7448 -57.4739 -55.5443 -54.4887 -53.3151 -48.2208 -43.1788 -39.692 -40.6806 -41.628 -40.4289 -40.0207 -40.18 -39.9905 -39.8693 -39.5019 -39.1321 -38.7599 -38.4533 -38.1471 -38.6117 -38.6912 -38.5123 -37.4008 -36.0363 -34.4162 -33.3389 -32.4853 -30.8041 -28.5096 -26.8138 -24.9973 -22.8279 -21.8469 -21.5828 -14.8436 -10.3787 -19.1876 -15.8501 -20.6731 -20.6262 -20.587 -20.5533 -20.5237 -22.5099