# Force coefficients
# liftDir    : (0.000000e+00 0.000000e+00 1.000000e+00)
# dragDir    : (1.000000e+00 0.000000e+00 0.000000e+00)
# pitchAxis  : (0.000000e+00 1.000000e+00 0.000000e+00)
# magUInf    : 2.000000e+01
# lRef       : 1.420000e+00
# Aref       : 7.500000e-01
# CofR       : (7.200000e-01 0.000000e+00 0.000000e+00)
# Time       	Cm           	Cd           	Cl           	Cl(f)        	Cl(r)        
1            	5.677476e-01	1.335240e+00	-3.539029e-02	5.500524e-01	-5.854427e-01
2            	6.524970e-01	1.529891e+00	-5.275977e-02	6.261171e-01	-6.788769e-01
3            	5.707365e-01	1.334942e+00	-4.019024e-02	5.506413e-01	-5.908316e-01
4            	4.620001e-01	1.083905e+00	-2.883522e-02	4.475825e-01	-4.764177e-01
5            	3.717534e-01	8.786814e-01	-1.811608e-02	3.626953e-01	-3.808114e-01
6            	3.042973e-01	7.260226e-01	-3.736318e-03	3.024292e-01	-3.061655e-01
7            	2.596675e-01	6.238447e-01	6.380515e-03	2.628577e-01	-2.564772e-01
8            	2.306116e-01	5.572593e-01	1.049752e-02	2.358604e-01	-2.253628e-01
9            	2.112421e-01	5.135217e-01	1.295578e-02	2.177200e-01	-2.047642e-01
10           	1.980255e-01	4.849526e-01	1.498364e-02	2.055173e-01	-1.905337e-01
11           	1.891790e-01	4.661807e-01	1.825224e-02	1.983051e-01	-1.800528e-01
12           	1.837259e-01	4.536849e-01	2.281113e-02	1.951315e-01	-1.723204e-01
13           	1.806310e-01	4.456263e-01	2.872544e-02	1.949938e-01	-1.662683e-01
14           	1.799021e-01	4.414501e-01	3.434372e-02	1.970740e-01	-1.627302e-01
15           	1.803546e-01	4.388932e-01	4.050348e-02	2.006064e-01	-1.601029e-01
16           	1.807743e-01	4.365979e-01	4.642500e-02	2.039868e-01	-1.575618e-01
17           	1.811544e-01	4.350885e-01	5.108814e-02	2.066985e-01	-1.556104e-01
18           	1.812917e-01	4.338856e-01	5.363164e-02	2.081075e-01	-1.544759e-01
19           	1.812161e-01	4.326138e-01	5.417085e-02	2.083016e-01	-1.541307e-01
20           	1.810966e-01	4.315978e-01	5.316559e-02	2.076794e-01	-1.545138e-01
21           	1.810277e-01	4.311563e-01	5.157312e-02	2.068143e-01	-1.552412e-01
22           	1.802893e-01	4.306246e-01	5.064467e-02	2.056116e-01	-1.549669e-01
23           	1.788124e-01	4.296609e-01	5.077024e-02	2.041976e-01	-1.534273e-01
24           	1.766915e-01	4.280504e-01	5.168932e-02	2.025361e-01	-1.508468e-01
25           	1.742243e-01	4.259219e-01	5.341518e-02	2.009319e-01	-1.475167e-01
26           	1.720491e-01	4.238672e-01	5.528633e-02	1.996923e-01	-1.444060e-01
27           	1.703276e-01	4.220503e-01	5.697511e-02	1.988152e-01	-1.418400e-01
28           	1.688778e-01	4.201669e-01	5.838108e-02	1.980684e-01	-1.396873e-01
29           	1.676079e-01	4.183507e-01	5.985157e-02	1.975337e-01	-1.376821e-01
30           	1.664760e-01	4.166757e-01	6.151224e-02	1.972321e-01	-1.357199e-01
31           	1.655405e-01	4.152147e-01	6.313904e-02	1.971101e-01	-1.339710e-01
32           	1.647814e-01	4.139490e-01	6.438082e-02	1.969718e-01	-1.325910e-01
33           	1.642527e-01	4.130666e-01	6.533199e-02	1.969187e-01	-1.315867e-01
34           	1.638058e-01	4.124312e-01	6.603160e-02	1.968216e-01	-1.307900e-01
35           	1.634780e-01	4.119824e-01	6.655826e-02	1.967571e-01	-1.301988e-01
36           	1.632701e-01	4.117223e-01	6.692948e-02	1.967349e-01	-1.298054e-01
37           	1.632610e-01	4.116246e-01	6.705614e-02	1.967891e-01	-1.297330e-01
38           	1.634211e-01	4.115037e-01	6.661434e-02	1.967283e-01	-1.301140e-01
39           	1.636524e-01	4.112058e-01	6.577279e-02	1.965388e-01	-1.307661e-01
40           	1.639107e-01	4.107719e-01	6.475915e-02	1.962902e-01	-1.315311e-01
41           	1.640565e-01	4.101993e-01	6.386512e-02	1.959890e-01	-1.321239e-01
42           	1.640499e-01	4.095737e-01	6.310656e-02	1.956032e-01	-1.324966e-01
43           	1.639086e-01	4.088946e-01	6.271800e-02	1.952676e-01	-1.325496e-01
44           	1.636540e-01	4.083222e-01	6.257298e-02	1.949405e-01	-1.323676e-01
45           	1.633501e-01	4.079652e-01	6.275873e-02	1.947295e-01	-1.319707e-01
46           	1.630974e-01	4.079287e-01	6.323837e-02	1.947166e-01	-1.314782e-01
47           	1.629287e-01	4.082448e-01	6.388192e-02	1.948696e-01	-1.309877e-01
48           	1.627975e-01	4.087603e-01	6.458650e-02	1.950907e-01	-1.305042e-01
49           	1.626506e-01	4.094333e-01	6.531606e-02	1.953086e-01	-1.299926e-01
50           	1.624493e-01	4.101225e-01	6.607688e-02	1.954877e-01	-1.294108e-01
51           	1.622268e-01	4.108334e-01	6.688762e-02	1.956706e-01	-1.287830e-01
52           	1.620013e-01	4.115306e-01	6.762289e-02	1.958128e-01	-1.281899e-01
53           	1.617980e-01	4.122369e-01	6.829122e-02	1.959436e-01	-1.276524e-01
54           	1.616294e-01	4.129178e-01	6.888828e-02	1.960735e-01	-1.271852e-01
55           	1.615129e-01	4.136027e-01	6.936268e-02	1.961942e-01	-1.268315e-01
56           	1.614177e-01	4.141685e-01	6.969119e-02	1.962633e-01	-1.265721e-01
57           	1.612731e-01	4.145814e-01	6.985196e-02	1.961991e-01	-1.263471e-01
58           	1.610876e-01	4.147985e-01	6.993340e-02	1.960543e-01	-1.261209e-01
59           	1.608449e-01	4.148769e-01	6.998998e-02	1.958398e-01	-1.258499e-01
60           	1.605930e-01	4.148747e-01	7.002832e-02	1.956071e-01	-1.255788e-01
61           	1.603274e-01	4.148451e-01	7.004304e-02	1.953489e-01	-1.253058e-01
62           	1.600744e-01	4.147616e-01	7.002440e-02	1.950866e-01	-1.250622e-01
63           	1.598692e-01	4.147240e-01	7.003187e-02	1.948851e-01	-1.248532e-01
64           	1.597602e-01	4.147931e-01	7.006454e-02	1.947925e-01	-1.247279e-01
65           	1.597296e-01	4.149892e-01	7.010013e-02	1.947797e-01	-1.246796e-01
66           	1.597563e-01	4.152589e-01	7.018584e-02	1.948492e-01	-1.246633e-01
67           	1.597665e-01	4.155166e-01	7.029918e-02	1.949161e-01	-1.246169e-01
68           	1.597044e-01	4.156921e-01	7.039774e-02	1.949033e-01	-1.245055e-01
69           	1.595407e-01	4.157707e-01	7.042614e-02	1.947538e-01	-1.243277e-01
70           	1.592734e-01	4.157199e-01	7.040537e-02	1.944761e-01	-1.240707e-01
71           	1.589528e-01	4.155865e-01	7.034103e-02	1.941233e-01	-1.237823e-01
72           	1.585929e-01	4.153498e-01	7.033099e-02	1.937584e-01	-1.234274e-01
73           	1.582484e-01	4.150700e-01	7.036980e-02	1.934333e-01	-1.230635e-01
74           	1.579158e-01	4.147110e-01	7.047789e-02	1.931547e-01	-1.226768e-01
75           	1.576598e-01	4.143514e-01	7.066670e-02	1.929932e-01	-1.223265e-01
76           	1.574666e-01	4.139954e-01	7.085670e-02	1.928950e-01	-1.220383e-01
77           	1.573880e-01	4.137412e-01	7.097687e-02	1.928765e-01	-1.218996e-01
78           	1.573964e-01	4.135880e-01	7.100756e-02	1.929002e-01	-1.218926e-01
79           	1.575359e-01	4.136518e-01	7.086200e-02	1.929669e-01	-1.221049e-01
80           	1.577648e-01	4.138862e-01	7.061044e-02	1.930700e-01	-1.224596e-01
81           	1.579979e-01	4.141666e-01	7.020465e-02	1.931003e-01	-1.228956e-01
82           	1.582101e-01	4.144580e-01	6.974822e-02	1.930842e-01	-1.233360e-01
83           	1.584211e-01	4.147871e-01	6.933726e-02	1.930897e-01	-1.237524e-01
84           	1.586453e-01	4.152088e-01	6.900278e-02	1.931467e-01	-1.241439e-01
85           	1.588756e-01	4.156565e-01	6.879364e-02	1.932724e-01	-1.244787e-01
86           	1.590655e-01	4.160494e-01	6.858597e-02	1.933584e-01	-1.247725e-01
87           	1.591813e-01	4.163223e-01	6.840642e-02	1.933845e-01	-1.249780e-01
88           	1.591413e-01	4.164210e-01	6.813691e-02	1.932097e-01	-1.250728e-01
89           	1.591045e-01	4.165031e-01	6.801602e-02	1.931125e-01	-1.250965e-01
90           	1.589813e-01	4.164705e-01	6.792396e-02	1.929433e-01	-1.250193e-01
91           	1.588807e-01	4.164443e-01	6.799455e-02	1.928779e-01	-1.248834e-01
92           	1.587505e-01	4.163543e-01	6.805834e-02	1.927797e-01	-1.247214e-01
93           	1.586692e-01	4.162967e-01	6.818817e-02	1.927633e-01	-1.245751e-01
94           	1.586124e-01	4.162404e-01	6.817421e-02	1.926995e-01	-1.245253e-01
95           	1.586530e-01	4.162471e-01	6.811226e-02	1.927091e-01	-1.245969e-01
96           	1.587067e-01	4.162255e-01	6.780481e-02	1.926091e-01	-1.248043e-01
97           	1.587814e-01	4.161470e-01	6.741133e-02	1.924871e-01	-1.250757e-01
98           	1.588037e-01	4.159305e-01	6.689431e-02	1.922508e-01	-1.253565e-01
99           	1.588314e-01	4.156189e-01	6.643815e-02	1.920505e-01	-1.256123e-01
100          	1.588402e-01	4.152803e-01	6.590889e-02	1.917946e-01	-1.258857e-01
101          	1.588860e-01	4.150263e-01	6.544154e-02	1.916068e-01	-1.261653e-01
102          	1.589023e-01	4.148297e-01	6.492793e-02	1.913663e-01	-1.264383e-01
103          	1.589196e-01	4.147278e-01	6.453909e-02	1.911891e-01	-1.266501e-01
104          	1.588535e-01	4.146003e-01	6.413277e-02	1.909198e-01	-1.267871e-01
105          	1.587793e-01	4.145545e-01	6.385965e-02	1.907091e-01	-1.268494e-01
106          	1.586235e-01	4.144454e-01	6.363397e-02	1.904404e-01	-1.268065e-01
107          	1.584799e-01	4.143872e-01	6.353348e-02	1.902466e-01	-1.267131e-01
108          	1.582829e-01	4.142790e-01	6.344520e-02	1.900055e-01	-1.265603e-01
109          	1.581131e-01	4.142216e-01	6.351051e-02	1.898683e-01	-1.263578e-01
110          	1.579475e-01	4.141693e-01	6.359793e-02	1.897465e-01	-1.261485e-01
111          	1.578415e-01	4.141946e-01	6.381137e-02	1.897472e-01	-1.259358e-01
112          	1.577215e-01	4.141956e-01	6.397476e-02	1.897089e-01	-1.257341e-01
113          	1.576219e-01	4.142238e-01	6.418182e-02	1.897128e-01	-1.255310e-01
114          	1.575120e-01	4.142101e-01	6.432787e-02	1.896759e-01	-1.253481e-01
115          	1.573872e-01	4.141549e-01	6.443994e-02	1.896072e-01	-1.251672e-01
116          	1.572153e-01	4.140067e-01	6.440950e-02	1.894200e-01	-1.250105e-01
117          	1.570043e-01	4.137518e-01	6.434191e-02	1.891753e-01	-1.248334e-01
118          	1.567572e-01	4.133855e-01	6.423957e-02	1.888770e-01	-1.246374e-01
119          	1.565222e-01	4.130011e-01	6.417965e-02	1.886120e-01	-1.244323e-01
120          	1.562657e-01	4.125800e-01	6.412695e-02	1.883292e-01	-1.242022e-01
121          	1.560728e-01	4.122597e-01	6.418543e-02	1.881655e-01	-1.239801e-01
122          	1.559251e-01	4.120316e-01	6.427096e-02	1.880605e-01	-1.237896e-01
123          	1.558871e-01	4.119776e-01	6.446845e-02	1.881213e-01	-1.236529e-01
124          	1.558989e-01	4.120102e-01	6.467263e-02	1.882352e-01	-1.235625e-01
125          	1.560051e-01	4.121863e-01	6.491261e-02	1.884614e-01	-1.235488e-01
126          	1.561174e-01	4.123648e-01	6.507093e-02	1.886529e-01	-1.235820e-01
127          	1.562541e-01	4.125726e-01	6.518302e-02	1.888456e-01	-1.236626e-01
128          	1.563178e-01	4.126563e-01	6.517559e-02	1.889056e-01	-1.237300e-01
129          	1.563417e-01	4.126661e-01	6.514491e-02	1.889142e-01	-1.237693e-01
130          	1.562686e-01	4.125100e-01	6.505062e-02	1.887939e-01	-1.237433e-01
131          	1.561520e-01	4.122813e-01	6.500220e-02	1.886531e-01	-1.236509e-01
132          	1.559520e-01	4.119144e-01	6.496249e-02	1.884333e-01	-1.234708e-01
133          	1.557793e-01	4.115725e-01	6.503519e-02	1.882969e-01	-1.232617e-01
134          	1.556103e-01	4.112297e-01	6.511553e-02	1.881681e-01	-1.230526e-01
135          	1.555213e-01	4.109955e-01	6.525077e-02	1.881467e-01	-1.228959e-01
136          	1.554769e-01	4.108027e-01	6.531839e-02	1.881361e-01	-1.228177e-01
137          	1.555487e-01	4.107622e-01	6.539415e-02	1.882457e-01	-1.228516e-01
138          	1.556550e-01	4.107705e-01	6.534925e-02	1.883296e-01	-1.229804e-01
139          	1.558329e-01	4.109033e-01	6.530384e-02	1.884848e-01	-1.231810e-01
140          	1.559666e-01	4.110184e-01	6.519022e-02	1.885617e-01	-1.233715e-01
141          	1.561390e-01	4.112293e-01	6.519426e-02	1.887361e-01	-1.235419e-01
142          	1.562106e-01	4.113776e-01	6.516547e-02	1.887934e-01	-1.236279e-01
143          	1.562629e-01	4.115501e-01	6.525423e-02	1.888900e-01	-1.236358e-01
144          	1.562500e-01	4.116341e-01	6.536621e-02	1.889331e-01	-1.235669e-01
145          	1.562459e-01	4.117479e-01	6.556083e-02	1.890263e-01	-1.234655e-01
146          	1.561956e-01	4.117799e-01	6.570656e-02	1.890489e-01	-1.233424e-01
147          	1.561704e-01	4.118367e-01	6.589150e-02	1.891162e-01	-1.232247e-01
148          	1.561241e-01	4.118259e-01	6.603963e-02	1.891439e-01	-1.231042e-01
149          	1.561399e-01	4.118839e-01	6.622105e-02	1.892504e-01	-1.230293e-01
150          	1.561227e-01	4.118963e-01	6.631556e-02	1.892805e-01	-1.229650e-01
151          	1.561496e-01	4.119531e-01	6.644653e-02	1.893728e-01	-1.229263e-01
152          	1.561404e-01	4.119411e-01	6.655292e-02	1.894169e-01	-1.228639e-01
153          	1.561609e-01	4.119676e-01	6.670208e-02	1.895119e-01	-1.228099e-01
154          	1.561232e-01	4.119117e-01	6.681370e-02	1.895300e-01	-1.227163e-01
155          	1.561086e-01	4.118887e-01	6.696850e-02	1.895928e-01	-1.226243e-01
156          	1.560493e-01	4.117923e-01	6.712381e-02	1.896112e-01	-1.224874e-01
157          	1.560244e-01	4.117472e-01	6.733297e-02	1.896908e-01	-1.223579e-01
158          	1.559520e-01	4.116514e-01	6.752063e-02	1.897123e-01	-1.221917e-01
159          	1.559187e-01	4.116226e-01	6.773902e-02	1.897882e-01	-1.220492e-01
160          	1.558623e-01	4.115600e-01	6.795337e-02	1.898390e-01	-1.218856e-01
161          	1.558592e-01	4.115844e-01	6.817336e-02	1.899459e-01	-1.217725e-01
162          	1.558398e-01	4.116051e-01	6.834740e-02	1.900135e-01	-1.216661e-01
163          	1.558434e-01	4.116602e-01	6.854165e-02	1.901142e-01	-1.215725e-01
164          	1.558361e-01	4.116916e-01	6.868364e-02	1.901779e-01	-1.214943e-01
165          	1.558615e-01	4.117796e-01	6.883561e-02	1.902793e-01	-1.214437e-01
166          	1.558558e-01	4.118398e-01	6.887925e-02	1.902954e-01	-1.214161e-01
167          	1.558695e-01	4.119135e-01	6.897086e-02	1.903549e-01	-1.213840e-01
168          	1.558429e-01	4.119252e-01	6.900748e-02	1.903466e-01	-1.213391e-01
169          	1.558478e-01	4.119882e-01	6.907894e-02	1.903873e-01	-1.213083e-01
170          	1.558161e-01	4.120158e-01	6.906659e-02	1.903494e-01	-1.212828e-01
171          	1.558244e-01	4.121006e-01	6.912028e-02	1.903845e-01	-1.212643e-01
172          	1.558233e-01	4.121731e-01	6.914458e-02	1.903956e-01	-1.212510e-01
173          	1.558765e-01	4.123334e-01	6.921725e-02	1.904851e-01	-1.212679e-01
174          	1.558885e-01	4.124470e-01	6.924648e-02	1.905118e-01	-1.212653e-01
175          	1.559578e-01	4.126348e-01	6.934191e-02	1.906288e-01	-1.212869e-01
176          	1.559996e-01	4.127753e-01	6.940391e-02	1.907016e-01	-1.212977e-01
177          	1.560632e-01	4.129315e-01	6.949834e-02	1.908124e-01	-1.213141e-01
178          	1.560931e-01	4.130288e-01	6.954618e-02	1.908662e-01	-1.213200e-01
179          	1.561514e-01	4.131575e-01	6.962472e-02	1.909637e-01	-1.213390e-01
180          	1.561894e-01	4.132562e-01	6.960936e-02	1.909940e-01	-1.213847e-01
181          	1.562280e-01	4.133359e-01	6.959758e-02	1.910268e-01	-1.214292e-01
182          	1.562551e-01	4.133951e-01	6.951059e-02	1.910104e-01	-1.214998e-01
183          	1.562893e-01	4.134479e-01	6.944392e-02	1.910113e-01	-1.215674e-01
184          	1.563047e-01	4.134640e-01	6.929367e-02	1.909515e-01	-1.216578e-01
185          	1.563397e-01	4.134983e-01	6.916745e-02	1.909234e-01	-1.217559e-01
186          	1.563502e-01	4.134739e-01	6.901029e-02	1.908553e-01	-1.218450e-01
187          	1.564011e-01	4.134994e-01	6.889354e-02	1.908479e-01	-1.219544e-01
188          	1.564183e-01	4.134690e-01	6.874417e-02	1.907904e-01	-1.220462e-01
189          	1.564747e-01	4.134807e-01	6.863743e-02	1.907935e-01	-1.221560e-01
190          	1.565267e-01	4.134788e-01	6.850556e-02	1.907795e-01	-1.222740e-01
191          	1.566043e-01	4.134998e-01	6.841453e-02	1.908116e-01	-1.223970e-01
192          	1.566413e-01	4.134641e-01	6.828150e-02	1.907820e-01	-1.225005e-01
193          	1.566811e-01	4.134305e-01	6.818623e-02	1.907743e-01	-1.225880e-01
194          	1.566744e-01	4.133380e-01	6.806410e-02	1.907065e-01	-1.226424e-01
195          	1.566664e-01	4.132432e-01	6.797412e-02	1.906534e-01	-1.226793e-01
196          	1.566058e-01	4.130859e-01	6.784105e-02	1.905263e-01	-1.226853e-01
197          	1.565545e-01	4.129260e-01	6.775697e-02	1.904330e-01	-1.226760e-01
198          	1.564715e-01	4.127230e-01	6.765770e-02	1.903003e-01	-1.226426e-01
199          	1.564163e-01	4.125430e-01	6.760123e-02	1.902169e-01	-1.226156e-01
200          	1.563131e-01	4.123155e-01	6.748460e-02	1.900554e-01	-1.225708e-01
201          	1.562549e-01	4.121284e-01	6.744023e-02	1.899750e-01	-1.225348e-01
202          	1.561772e-01	4.119073e-01	6.738197e-02	1.898682e-01	-1.224862e-01
203          	1.561629e-01	4.117791e-01	6.736254e-02	1.898442e-01	-1.224816e-01
204          	1.561288e-01	4.116224e-01	6.732122e-02	1.897894e-01	-1.224682e-01
205          	1.561488e-01	4.115421e-01	6.732969e-02	1.898136e-01	-1.224839e-01
206          	1.561559e-01	4.114581e-01	6.727998e-02	1.897958e-01	-1.225159e-01
207          	1.561816e-01	4.114027e-01	6.725929e-02	1.898112e-01	-1.225519e-01
208          	1.561975e-01	4.113353e-01	6.717190e-02	1.897835e-01	-1.226116e-01
209          	1.562708e-01	4.113563e-01	6.711187e-02	1.898267e-01	-1.227148e-01
210          	1.563176e-01	4.113604e-01	6.697566e-02	1.898054e-01	-1.228297e-01
211          	1.563883e-01	4.114196e-01	6.685119e-02	1.898139e-01	-1.229627e-01
212          	1.564347e-01	4.114501e-01	6.669310e-02	1.897813e-01	-1.230882e-01
213          	1.565036e-01	4.115329e-01	6.657963e-02	1.897934e-01	-1.232137e-01
214          	1.565332e-01	4.115896e-01	6.641484e-02	1.897407e-01	-1.233258e-01
215          	1.565810e-01	4.117067e-01	6.630149e-02	1.897317e-01	-1.234303e-01
216          	1.565825e-01	4.117644e-01	6.618007e-02	1.896725e-01	-1.234925e-01
217          	1.566134e-01	4.118899e-01	6.615506e-02	1.896909e-01	-1.235359e-01
218          	1.565775e-01	4.119406e-01	6.609521e-02	1.896251e-01	-1.235299e-01
219          	1.565707e-01	4.120566e-01	6.613769e-02	1.896396e-01	-1.235019e-01
220          	1.565175e-01	4.120877e-01	6.616028e-02	1.895977e-01	-1.234374e-01
221          	1.565014e-01	4.121932e-01	6.624676e-02	1.896247e-01	-1.233780e-01
222          	1.564257e-01	4.121915e-01	6.627950e-02	1.895654e-01	-1.232859e-01
223          	1.563980e-01	4.122555e-01	6.639408e-02	1.895950e-01	-1.232010e-01
224          	1.563600e-01	4.122812e-01	6.642168e-02	1.895708e-01	-1.231491e-01
225          	1.563594e-01	4.123656e-01	6.647945e-02	1.895992e-01	-1.231197e-01
226          	1.563300e-01	4.124035e-01	6.645396e-02	1.895570e-01	-1.231030e-01
227          	1.563415e-01	4.125008e-01	6.650355e-02	1.895933e-01	-1.230897e-01
228          	1.563197e-01	4.125439e-01	6.648287e-02	1.895611e-01	-1.230782e-01
229          	1.563388e-01	4.126562e-01	6.652474e-02	1.896012e-01	-1.230764e-01
230          	1.563247e-01	4.127082e-01	6.651753e-02	1.895835e-01	-1.230659e-01
231          	1.563670e-01	4.128535e-01	6.658016e-02	1.896571e-01	-1.230769e-01
232          	1.563637e-01	4.129321e-01	6.657484e-02	1.896511e-01	-1.230763e-01
233          	1.564030e-01	4.130829e-01	6.663438e-02	1.897202e-01	-1.230858e-01
234          	1.564121e-01	4.131647e-01	6.663280e-02	1.897285e-01	-1.230957e-01
235          	1.564640e-01	4.133311e-01	6.666466e-02	1.897963e-01	-1.231316e-01
236          	1.564813e-01	4.134170e-01	6.663191e-02	1.897972e-01	-1.231653e-01
237          	1.565239e-01	4.135487e-01	6.663647e-02	1.898421e-01	-1.232056e-01
238          	1.565356e-01	4.136015e-01	6.658667e-02	1.898289e-01	-1.232422e-01
239          	1.565850e-01	4.137195e-01	6.658048e-02	1.898752e-01	-1.232948e-01
240          	1.566006e-01	4.137877e-01	6.648790e-02	1.898445e-01	-1.233566e-01
241          	1.566244e-01	4.138574e-01	6.644615e-02	1.898474e-01	-1.234013e-01
242          	1.566270e-01	4.138717e-01	6.636382e-02	1.898089e-01	-1.234451e-01
243          	1.566555e-01	4.139248e-01	6.634594e-02	1.898284e-01	-1.234825e-01
244          	1.566452e-01	4.138969e-01	6.627405e-02	1.897823e-01	-1.235082e-01
245          	1.566633e-01	4.139020e-01	6.625615e-02	1.897913e-01	-1.235352e-01
246          	1.566455e-01	4.138323e-01	6.620785e-02	1.897495e-01	-1.235416e-01
247          	1.566703e-01	4.138254e-01	6.622352e-02	1.897820e-01	-1.235585e-01
248          	1.566417e-01	4.137376e-01	6.616525e-02	1.897243e-01	-1.235590e-01
249          	1.566459e-01	4.136869e-01	6.616062e-02	1.897262e-01	-1.235656e-01
250          	1.566262e-01	4.135835e-01	6.610824e-02	1.896803e-01	-1.235720e-01
251          	1.566330e-01	4.135163e-01	6.611035e-02	1.896882e-01	-1.235778e-01
252          	1.565912e-01	4.133763e-01	6.605885e-02	1.896206e-01	-1.235618e-01
253          	1.565692e-01	4.132859e-01	6.606352e-02	1.896010e-01	-1.235374e-01
254          	1.565185e-01	4.131555e-01	6.602281e-02	1.895299e-01	-1.235071e-01
255          	1.565123e-01	4.130992e-01	6.605099e-02	1.895378e-01	-1.234868e-01
256          	1.564557e-01	4.129982e-01	6.602867e-02	1.894700e-01	-1.234413e-01
257          	1.564355e-01	4.129510e-01	6.608498e-02	1.894780e-01	-1.233931e-01
258          	1.563875e-01	4.128450e-01	6.614145e-02	1.894582e-01	-1.233167e-01
259          	1.563973e-01	4.128428e-01	6.624559e-02	1.895201e-01	-1.232745e-01
260          	1.563577e-01	4.128092e-01	6.624727e-02	1.894813e-01	-1.232340e-01
261          	1.563692e-01	4.128350e-01	6.634000e-02	1.895392e-01	-1.231992e-01
262          	1.563429e-01	4.127981e-01	6.636757e-02	1.895267e-01	-1.231591e-01
263          	1.563674e-01	4.128555e-01	6.643223e-02	1.895835e-01	-1.231513e-01
264          	1.563460e-01	4.128363e-01	6.640854e-02	1.895502e-01	-1.231417e-01
265          	1.563461e-01	4.128479e-01	6.644083e-02	1.895665e-01	-1.231257e-01
266          	1.563179e-01	4.127987e-01	6.640175e-02	1.895188e-01	-1.231170e-01
267          	1.563270e-01	4.128333e-01	6.640261e-02	1.895283e-01	-1.231257e-01
268          	1.562986e-01	4.128097e-01	6.633661e-02	1.894670e-01	-1.231303e-01
269          	1.563045e-01	4.128323e-01	6.631669e-02	1.894628e-01	-1.231461e-01
270          	1.562869e-01	4.128175e-01	6.623823e-02	1.894060e-01	-1.231677e-01
271          	1.562925e-01	4.128345e-01	6.619011e-02	1.893875e-01	-1.231974e-01
272          	1.562685e-01	4.127882e-01	6.608788e-02	1.893124e-01	-1.232245e-01
273          	1.563033e-01	4.128139e-01	6.604142e-02	1.893240e-01	-1.232825e-01
274          	1.563137e-01	4.128022e-01	6.592831e-02	1.892778e-01	-1.233495e-01
275          	1.563625e-01	4.128668e-01	6.585404e-02	1.892895e-01	-1.234355e-01
276          	1.563684e-01	4.128636e-01	6.574734e-02	1.892421e-01	-1.234948e-01
277          	1.564246e-01	4.129324e-01	6.566876e-02	1.892590e-01	-1.235903e-01
278          	1.564288e-01	4.129314e-01	6.556979e-02	1.892137e-01	-1.236439e-01
279          	1.564641e-01	4.129805e-01	6.549022e-02	1.892092e-01	-1.237190e-01
280          	1.564685e-01	4.129744e-01	6.541951e-02	1.891782e-01	-1.237587e-01
281          	1.564988e-01	4.130228e-01	6.536434e-02	1.891810e-01	-1.238166e-01
282          	1.564953e-01	4.130225e-01	6.529070e-02	1.891406e-01	-1.238499e-01
283          	1.564926e-01	4.130444e-01	6.522141e-02	1.891033e-01	-1.238818e-01
284          	1.564692e-01	4.130203e-01	6.514388e-02	1.890412e-01	-1.238973e-01
285          	1.564713e-01	4.130269e-01	6.510465e-02	1.890237e-01	-1.239190e-01
286          	1.564441e-01	4.129881e-01	6.504541e-02	1.889668e-01	-1.239214e-01
287          	1.564421e-01	4.129913e-01	6.502659e-02	1.889554e-01	-1.239288e-01
288          	1.564157e-01	4.129500e-01	6.496535e-02	1.888984e-01	-1.239331e-01
289          	1.564188e-01	4.129549e-01	6.494649e-02	1.888920e-01	-1.239455e-01
290          	1.563784e-01	4.128861e-01	6.487871e-02	1.888177e-01	-1.239390e-01
291          	1.563552e-01	4.128473e-01	6.484754e-02	1.887789e-01	-1.239314e-01
292          	1.563327e-01	4.127888e-01	6.478626e-02	1.887258e-01	-1.239395e-01
293          	1.563445e-01	4.127756e-01	6.477396e-02	1.887314e-01	-1.239575e-01
294          	1.563244e-01	4.127128e-01	6.469781e-02	1.886734e-01	-1.239755e-01
295          	1.563199e-01	4.126829e-01	6.466394e-02	1.886519e-01	-1.239879e-01
296          	1.563041e-01	4.126235e-01	6.459739e-02	1.886028e-01	-1.240054e-01
297          	1.563180e-01	4.126084e-01	6.457121e-02	1.886036e-01	-1.240324e-01
298          	1.563106e-01	4.125557e-01	6.449773e-02	1.885595e-01	-1.240618e-01
299          	1.563201e-01	4.125265e-01	6.447198e-02	1.885561e-01	-1.240841e-01
300          	1.563049e-01	4.124515e-01	6.440369e-02	1.885068e-01	-1.241031e-01
301          	1.563328e-01	4.124470e-01	6.439112e-02	1.885283e-01	-1.241372e-01
302          	1.563170e-01	4.123813e-01	6.432547e-02	1.884797e-01	-1.241543e-01
303          	1.563455e-01	4.123917e-01	6.430432e-02	1.884976e-01	-1.241933e-01
304          	1.563407e-01	4.123389e-01	6.425439e-02	1.884679e-01	-1.242135e-01
305          	1.563899e-01	4.123758e-01	6.426412e-02	1.885219e-01	-1.242578e-01
306          	1.563866e-01	4.123359e-01	6.422498e-02	1.884991e-01	-1.242741e-01
307          	1.564313e-01	4.123722e-01	6.423266e-02	1.885477e-01	-1.243150e-01
308          	1.564305e-01	4.123506e-01	6.420173e-02	1.885313e-01	-1.243296e-01
309          	1.564711e-01	4.124096e-01	6.422072e-02	1.885815e-01	-1.243607e-01
310          	1.564659e-01	4.123995e-01	6.419956e-02	1.885657e-01	-1.243661e-01
311          	1.564900e-01	4.124674e-01	6.420408e-02	1.885920e-01	-1.243879e-01
312          	1.564898e-01	4.124662e-01	6.420413e-02	1.885918e-01	-1.243877e-01
313          	1.565221e-01	4.125463e-01	6.423095e-02	1.886375e-01	-1.244066e-01
314          	1.565100e-01	4.125603e-01	6.422937e-02	1.886247e-01	-1.243953e-01
315          	1.565339e-01	4.126329e-01	6.429235e-02	1.886801e-01	-1.243878e-01
316          	1.565344e-01	4.126725e-01	6.431804e-02	1.886935e-01	-1.243754e-01
317          	1.565668e-01	4.127675e-01	6.438841e-02	1.887610e-01	-1.243726e-01
318          	1.565422e-01	4.127872e-01	6.439366e-02	1.887390e-01	-1.243453e-01
319          	1.565583e-01	4.128536e-01	6.446303e-02	1.887898e-01	-1.243268e-01
320          	1.565303e-01	4.128549e-01	6.446565e-02	1.887631e-01	-1.242974e-01
321          	1.565537e-01	4.129283e-01	6.452909e-02	1.888183e-01	-1.242892e-01
322          	1.565336e-01	4.129173e-01	6.451460e-02	1.887909e-01	-1.242763e-01
323          	1.565464e-01	4.129530e-01	6.457317e-02	1.888330e-01	-1.242598e-01
324          	1.565246e-01	4.129485e-01	6.457888e-02	1.888141e-01	-1.242352e-01
325          	1.565322e-01	4.129724e-01	6.459584e-02	1.888301e-01	-1.242342e-01
326          	1.565002e-01	4.129402e-01	6.458094e-02	1.887907e-01	-1.242097e-01
327          	1.565033e-01	4.129394e-01	6.459416e-02	1.888004e-01	-1.242062e-01
328          	1.564671e-01	4.129018e-01	6.457033e-02	1.887523e-01	-1.241820e-01
329          	1.564617e-01	4.129039e-01	6.456127e-02	1.887424e-01	-1.241811e-01
330          	1.564408e-01	4.128744e-01	6.454401e-02	1.887128e-01	-1.241688e-01
331          	1.564483e-01	4.128811e-01	6.454352e-02	1.887201e-01	-1.241766e-01
332          	1.564161e-01	4.128357e-01	6.451813e-02	1.886752e-01	-1.241571e-01
333          	1.564149e-01	4.128381e-01	6.451680e-02	1.886733e-01	-1.241565e-01
334          	1.563893e-01	4.127882e-01	6.448777e-02	1.886331e-01	-1.241454e-01
335          	1.564097e-01	4.128110e-01	6.450141e-02	1.886604e-01	-1.241589e-01
336          	1.563805e-01	4.127659e-01	6.446063e-02	1.886109e-01	-1.241502e-01
337          	1.563818e-01	4.127727e-01	6.446706e-02	1.886153e-01	-1.241483e-01
338          	1.563595e-01	4.127291e-01	6.444868e-02	1.885839e-01	-1.241352e-01
339          	1.563664e-01	4.127348e-01	6.447749e-02	1.886051e-01	-1.241276e-01
340          	1.563342e-01	4.126857e-01	6.444758e-02	1.885580e-01	-1.241104e-01
341          	1.563339e-01	4.126829e-01	6.445727e-02	1.885626e-01	-1.241053e-01
342          	1.563033e-01	4.126222e-01	6.443801e-02	1.885223e-01	-1.240843e-01
343          	1.563206e-01	4.126376e-01	6.446572e-02	1.885534e-01	-1.240877e-01
344          	1.562879e-01	4.125807e-01	6.442357e-02	1.884997e-01	-1.240761e-01
345          	1.562938e-01	4.125903e-01	6.441541e-02	1.885015e-01	-1.240861e-01
346          	1.562673e-01	4.125256e-01	6.438035e-02	1.884575e-01	-1.240772e-01
347          	1.562804e-01	4.125251e-01	6.438590e-02	1.884734e-01	-1.240875e-01
348          	1.562454e-01	4.124535e-01	6.433285e-02	1.884118e-01	-1.240790e-01
349          	1.562440e-01	4.124423e-01	6.430920e-02	1.883986e-01	-1.240894e-01
350          	1.562029e-01	4.123555e-01	6.425115e-02	1.883285e-01	-1.240773e-01
351          	1.561966e-01	4.123267e-01	6.424320e-02	1.883182e-01	-1.240750e-01
352          	1.561339e-01	4.122234e-01	6.417101e-02	1.882194e-01	-1.240484e-01
353          	1.561134e-01	4.121815e-01	6.415626e-02	1.881915e-01	-1.240353e-01
354          	1.560699e-01	4.120889e-01	6.411379e-02	1.881267e-01	-1.240130e-01
355          	1.560592e-01	4.120525e-01	6.411291e-02	1.881156e-01	-1.240027e-01
356          	1.560034e-01	4.119584e-01	6.405462e-02	1.880307e-01	-1.239761e-01
357          	1.559845e-01	4.119126e-01	6.405773e-02	1.880134e-01	-1.239557e-01
358          	1.559506e-01	4.118361e-01	6.402573e-02	1.879634e-01	-1.239377e-01
359          	1.559528e-01	4.118179e-01	6.402776e-02	1.879667e-01	-1.239389e-01
360          	1.559109e-01	4.117394e-01	6.397232e-02	1.878971e-01	-1.239247e-01
361          	1.559128e-01	4.117259e-01	6.397946e-02	1.879025e-01	-1.239231e-01
362          	1.558888e-01	4.116634e-01	6.394548e-02	1.878615e-01	-1.239160e-01
363          	1.559018e-01	4.116737e-01	6.393922e-02	1.878714e-01	-1.239322e-01
364          	1.558706e-01	4.116176e-01	6.388515e-02	1.878132e-01	-1.239281e-01
365          	1.558792e-01	4.116171e-01	6.388854e-02	1.878234e-01	-1.239349e-01
366          	1.558621e-01	4.115784e-01	6.384928e-02	1.877868e-01	-1.239375e-01
367          	1.558798e-01	4.116066e-01	6.384047e-02	1.878000e-01	-1.239595e-01
368          	1.558578e-01	4.115728e-01	6.379664e-02	1.877561e-01	-1.239595e-01
369          	1.558726e-01	4.115991e-01	6.379472e-02	1.877700e-01	-1.239753e-01