# vtk DataFile Version 2.0
track0
ASCII
DATASET POLYDATA
POINTS 18147 float
-1.001 -0.05 0.316889
-1.0008 -0.0500006 0.316891
-1.00059 -0.0500012 0.316892
-1.00039 -0.0500018 0.316893
-1.00019 -0.0500024 0.316894
-0.999982 -0.050003 0.316895
-0.987481 -0.0500399 0.316959
-0.97498 -0.0500786 0.317024
-0.962479 -0.0501182 0.31709
-0.949978 -0.0501587 0.317156
-0.937477 -0.0502002 0.317223
-0.924975 -0.0502411 0.317289
-0.912473 -0.0502842 0.317357
-0.89997 -0.0503291 0.317424
-0.887468 -0.0503757 0.317492
-0.874966 -0.0504242 0.317561
-0.862462 -0.0504728 0.31763
-0.849959 -0.0505228 0.3177
-0.837455 -0.0505754 0.31777
-0.824951 -0.0506307 0.31784
-0.812448 -0.0506886 0.31791
-0.79995 -0.0507485 0.317981
-0.787453 -0.050812 0.318052
-0.774955 -0.0508793 0.318123
-0.762458 -0.0509504 0.318195
-0.749961 -0.0510254 0.318266
-0.737547 -0.0511009 0.318337
-0.725134 -0.0511784 0.318408
-0.712721 -0.0512614 0.318478
-0.700308 -0.0513498 0.318548
-0.687895 -0.0514437 0.318618
-0.681889 -0.0514916 0.318651
-0.675884 -0.0515415 0.318684
-0.669878 -0.0515934 0.318718
-0.663872 -0.0516473 0.31875
-0.657805 -0.0517038 0.318783
-0.651644 -0.0517633 0.318817
-0.645483 -0.051825 0.31885
-0.639323 -0.0518887 0.318882
-0.633162 -0.0519545 0.318915
-0.627002 -0.0520213 0.318947
-0.61425 -0.0521607 0.319014
-0.601499 -0.052306 0.31908
-0.588748 -0.0524666 0.319145
-0.575997 -0.0526427 0.319208
-0.563245 -0.0528344 0.319271
-0.550725 -0.0530342 0.319331
-0.538206 -0.0532558 0.319391
-0.525687 -0.0535039 0.319449
-0.513168 -0.0537787 0.319505
-0.500645 -0.0540807 0.319557
-0.488224 -0.0543982 0.31961
-0.475804 -0.05476 0.319663
-0.463386 -0.0551792 0.319714
-0.45097 -0.0556569 0.319762
-0.438537 -0.0561955 0.319806
-0.432347 -0.0564964 0.319831
-0.426157 -0.0568106 0.319859
-0.419968 -0.0571539 0.319886
-0.413781 -0.0575274 0.319913
-0.407583 -0.0579325 0.319939
-0.401362 -0.0583733 0.319961
-0.395145 -0.0588605 0.319988
-0.388933 -0.0594017 0.320014
-0.382725 -0.0599976 0.320039
-0.376477 -0.0606534 0.320063
-0.371926 -0.0611713 0.320083
-0.367382 -0.0617378 0.320105
-0.362844 -0.0623572 0.32013
-0.358315 -0.0630384 0.320156
-0.35722 -0.0632167 0.320162
-0.354809 -0.0636165 0.320176
-0.3524 -0.0640299 0.32019
-0.349993 -0.0644568 0.320203
-0.347589 -0.0648971 0.320215
-0.345163 -0.0653556 0.320227
-0.338842 -0.0665858 0.320261
-0.332545 -0.067929 0.32029
-0.326278 -0.0694093 0.320315
-0.320045 -0.0710225 0.320333
-0.313555 -0.0728328 0.320339
-0.310349 -0.0737767 0.320336
-0.307142 -0.0747195 0.320333
-0.303938 -0.0756717 0.320327
-0.30074 -0.076643 0.320318
-0.297521 -0.0776399 0.320306
-0.296775 -0.0778799 0.320303
-0.29603 -0.0781207 0.320299
-0.295285 -0.0783611 0.320295
-0.294539 -0.0786007 0.32029
-0.293792 -0.0788399 0.320285
-0.291436 -0.0795921 0.320268
-0.289079 -0.0803423 0.320247
-0.286721 -0.0810906 0.320224
-0.284363 -0.081837 0.320199
-0.28201 -0.0825788 0.320172
-0.278828 -0.0835744 0.320134
-0.275632 -0.0845287 0.320088
-0.272426 -0.0854435 0.320035
-0.269209 -0.0863235 0.319977
-0.266105 -0.0871429 0.319916
-0.262998 -0.0879357 0.319852
-0.259881 -0.0886874 0.31978
-0.256753 -0.0893915 0.319704
-0.253613 -0.0900383 0.319626
-0.250592 -0.0906053 0.319546
-0.247522 -0.0910785 0.319463
-0.244445 -0.0915027 0.319377
-0.241361 -0.0918689 0.319288
-0.238271 -0.092178 0.319198
-0.235285 -0.0924212 0.319109
-0.232058 -0.0926119 0.319012
-0.228829 -0.0927682 0.318914
-0.225598 -0.0928814 0.318815
-0.222365 -0.0929509 0.318715
-0.219139 -0.0929748 0.318615
-0.215946 -0.0929474 0.318513
-0.212753 -0.0928965 0.318412
-0.209562 -0.0928188 0.318311
-0.20637 -0.092716 0.318208
-0.203165 -0.0925869 0.318104
-0.20011 -0.0924419 0.318003
-0.197056 -0.0922918 0.317903
-0.194002 -0.0921336 0.317801
-0.190948 -0.0919669 0.317699
-0.187891 -0.0917899 0.317597
-0.184891 -0.0916029 0.317495
-0.181892 -0.0913986 0.317394
-0.178894 -0.0911801 0.317292
-0.175898 -0.0909469 0.31719
-0.172893 -0.0906979 0.317088
-0.169846 -0.0904407 0.316983
-0.166799 -0.0901701 0.316879
-0.163752 -0.0898992 0.316774
-0.160706 -0.089628 0.316668
-0.157657 -0.0893563 0.316561
-0.154536 -0.0890787 0.316447
-0.151418 -0.0887842 0.316336
-0.148299 -0.0884938 0.316223
-0.145179 -0.0882084 0.31611
-0.14206 -0.0879283 0.315995
-0.138602 -0.0876341 0.315876
-0.135142 -0.0873653 0.31576
-0.131681 -0.0871122 0.315641
-0.128219 -0.0868754 0.315519
-0.124777 -0.0866619 0.3154
-0.121533 -0.0864694 0.315295
-0.118288 -0.0863273 0.315181
-0.115042 -0.0862059 0.315055
-0.111796 -0.0861034 0.314919
-0.108571 -0.0860208 0.314774
-0.105315 -0.0859536 0.314613
-0.10206 -0.0859146 0.314435
-0.0988052 -0.0858888 0.314241
-0.0955516 -0.0858762 0.31403
-0.0922866 -0.0858781 0.313797
-0.089071 -0.0858881 0.313538
-0.0858571 -0.0859093 0.313259
-0.082645 -0.0859352 0.312961
-0.0794346 -0.0859681 0.312645
-0.0781406 -0.0859842 0.31251
-0.0777565 -0.0859893 0.312469
-0.0773725 -0.0859945 0.312428
-0.0769884 -0.0859999 0.312387
-0.0766044 -0.0860054 0.312345
-0.0762204 -0.0860111 0.312303
-0.073425 -0.086053 0.311997
-0.0706313 -0.0861041 0.311676
-0.0678394 -0.0861655 0.311342
-0.0650494 -0.0862375 0.310995
-0.0622484 -0.0863182 0.310628
-0.0593134 -0.0864217 0.310221
-0.0563808 -0.0865405 0.309802
-0.0534509 -0.0866898 0.309373
-0.0505245 -0.0868689 0.308933
-0.047552 -0.0870825 0.308471
-0.0443084 -0.087385 0.307943
-0.0410724 -0.087726 0.307393
-0.0378488 -0.0881386 0.30682
-0.0346432 -0.0886482 0.306224
-0.0312818 -0.0893121 0.305494
-0.0288898 -0.0899037 0.304855
-0.0265367 -0.090562 0.30414
-0.0241861 -0.0912373 0.303434
-0.0218175 -0.091909 0.302787
-0.0206648 -0.0922297 0.302523
-0.018832 -0.0927335 0.302163
-0.0170109 -0.0933108 0.301858
-0.0152018 -0.0939222 0.301548
-0.013419 -0.0946026 0.30123
-0.0113977 -0.095606 0.300829
-1.001 -0.05 0.369521
-1.0008 -0.0500006 0.369522
-1.00059 -0.0500012 0.369524
-1.00039 -0.0500018 0.369525
-1.00019 -0.0500023 0.369526
-0.999983 -0.0500029 0.369527
-0.987482 -0.050039 0.369603
-0.974981 -0.0500781 0.36968
-0.96248 -0.0501181 0.369757
-0.949978 -0.0501591 0.369835
-0.937477 -0.0502011 0.369914
-0.924975 -0.0502412 0.369994
-0.912473 -0.0502839 0.370074
-0.899971 -0.0503283 0.370155
-0.887469 -0.0503744 0.370238
-0.874967 -0.0504224 0.370321
-0.862469 -0.0504701 0.370405
-0.849972 -0.0505203 0.37049
-0.837474 -0.0505731 0.370576
-0.824977 -0.0506286 0.370662
-0.812479 -0.0506866 0.370749
-0.800059 -0.0507448 0.370837
-0.787639 -0.0508062 0.370925
-0.775218 -0.0508713 0.371014
-0.762798 -0.05094 0.371104
-0.750377 -0.0510123 0.371195
-0.738235 -0.0510846 0.371284
-0.726092 -0.0511607 0.371374
-0.713949 -0.051242 0.371464
-0.701806 -0.0513285 0.371555
-0.689663 -0.0514202 0.371646
-0.676973 -0.0515185 0.371742
-0.664282 -0.0516226 0.371839
-0.651591 -0.0517345 0.371937
-0.638901 -0.0518544 0.372036
-0.62621 -0.0519824 0.372137
-0.613705 -0.0521152 0.372237
-0.601201 -0.0522601 0.372339
-0.588696 -0.0524186 0.372442
-0.576192 -0.0525908 0.372547
-0.563687 -0.0527769 0.372653
-0.551184 -0.0529692 0.372761
-0.53868 -0.0531733 0.372874
-0.526178 -0.0534019 0.37299
-0.513676 -0.0536554 0.37311
-0.50117 -0.0539341 0.373234
-0.488719 -0.0542355 0.373361
-0.476268 -0.0545853 0.373496
-0.46382 -0.0549868 0.373641
-0.451373 -0.055441 0.373794
-0.438911 -0.0559496 0.373957
-0.43269 -0.0562279 0.374047
-0.42647 -0.056522 0.374142
-0.420252 -0.0568416 0.374241
-0.414035 -0.0571871 0.374345
-0.407807 -0.0575597 0.374453
-0.40156 -0.0579611 0.374566
-0.395316 -0.0584066 0.374687
-0.389075 -0.0588973 0.374814
-0.382838 -0.0594338 0.374949
-0.376566 -0.0600204 0.375092
-0.37528 -0.0601497 0.375123
-0.373994 -0.0602821 0.375155
-0.372709 -0.0604177 0.375189
-0.371424 -0.0605581 0.375223
-0.370458 -0.0606678 0.375249
-0.365896 -0.0611952 0.375373
-0.361338 -0.0617625 0.375501
-0.356785 -0.0623698 0.375632
-0.352238 -0.0630169 0.375767
-0.350422 -0.0632922 0.375823
-0.349376 -0.0634549 0.375855
-0.34833 -0.0636199 0.375887
-0.347284 -0.0637869 0.37592
-0.346239 -0.0639562 0.375953
-0.34519 -0.0641282 0.375986
-0.338824 -0.0651843 0.376189
-0.332482 -0.0663689 0.376394
-0.326166 -0.0676863 0.376601
-0.319878 -0.0691338 0.376811
-0.313297 -0.0707897 0.377033
-0.310108 -0.0716348 0.377127
-0.306921 -0.0724913 0.377213
-0.303739 -0.0733627 0.377293
-0.300561 -0.0742485 0.377365
-0.29735 -0.0751699 0.377432
-0.294645 -0.07597 0.377486
-0.291942 -0.0767815 0.37753
-0.289241 -0.0775976 0.377564
-0.286542 -0.0784205 0.37759
-0.284109 -0.0791688 0.377605
-0.283595 -0.0793279 0.377607
-0.283082 -0.0794871 0.377608
-0.282569 -0.0796464 0.377609
-0.282056 -0.0798059 0.37761
-0.281542 -0.0799657 0.377611
-0.278203 -0.0810054 0.377613
-0.274859 -0.0820305 0.377599
-0.271511 -0.0830425 0.377568
-0.26816 -0.0840422 0.377521
-0.26484 -0.085012 0.377459
-0.261668 -0.0859311 0.377385
-0.258478 -0.0867851 0.377292
-0.255276 -0.0875923 0.377181
-0.252064 -0.0883538 0.377053
-0.248946 -0.0890289 0.376907
-0.245854 -0.0896727 0.376746
-0.242752 -0.0902577 0.376566
-0.239641 -0.0907845 0.376371
-0.236522 -0.0912656 0.376163
-0.233449 -0.0916936 0.375945
-0.231079 -0.0919675 0.375766
-0.228708 -0.0922256 0.375581
-0.226334 -0.0924516 0.375394
-0.223957 -0.0926449 0.375203
-0.221878 -0.0927852 0.375032
-0.221332 -0.0928154 0.374987
-0.220785 -0.0928438 0.374941
-0.220239 -0.0928705 0.374895
-0.219693 -0.0928956 0.374849
-0.219148 -0.0929188 0.374802
-0.216025 -0.0930436 0.374537
-0.212901 -0.0931323 0.374274
-0.209776 -0.0931855 0.374012
-0.20665 -0.0932019 0.373752
-0.203546 -0.0931803 0.373496
-0.200424 -0.0931281 0.373244
-0.197303 -0.0930485 0.372992
-0.194182 -0.0929462 0.372743
-0.191062 -0.0928205 0.372496
-0.187942 -0.0926707 0.372252
-0.184863 -0.0925141 0.372014
-0.181785 -0.0923323 0.371774
-0.178709 -0.0921303 0.371535
-0.175634 -0.0919073 0.371296
-0.172547 -0.0916617 0.371057
-0.169467 -0.0914161 0.370829
-0.166389 -0.0911511 0.370591
-0.163311 -0.0908797 0.370355
-0.160234 -0.0906018 0.370119
-0.157146 -0.0903206 0.369885
-0.154056 -0.0900424 0.369657
[...]
POINT_DATA 18147
 FIELD attributes 1
U 3 18147 float
19.1813 	-0.056453 	0.0987782 19.181 	-0.0564785 	0.0987982 19.1806 	-0.056504 	0.0988181 19.1803 	-0.0565295 	0.0988381 19.18 	-0.056555 	0.0988581 19.1797 	-0.0565805 	0.098878 19.1655 	-0.059363 	0.10005 19.1521 	-0.0607034 	0.100623 19.1386 	-0.0620446 	0.101196 19.1252 	-0.0633868 	0.101769 19.1096 	-0.0625788 	0.101873 19.0891 	-0.0657676 	0.102624 19.0691 	-0.0684413 	0.103271 19.0491 	-0.0711169 	0.103918 19.0291 	-0.0737946 	0.104565 19.0089 	-0.0737958 	0.104995 18.9847 	-0.0759093 	0.105475 18.9614 	-0.0798221 	0.105925 18.9381 	-0.0837392 	0.106375 18.9149 	-0.0876604 	0.106826 18.8918 	-0.0905131 	0.107136 18.8637 	-0.0958055 	0.107089 18.8359 	-0.101415 	0.107132 18.8082 	-0.107031 	0.107174 18.7805 	-0.112653 	0.107217 18.752 	-0.11411 	0.107192 18.7162 	-0.116915 	0.10657 18.6823 	-0.12486 	0.105886 18.6483 	-0.132819 	0.105201 18.6144 	-0.140793 	0.104516 18.5805 	-0.148356 	0.103764 18.559 	-0.154075 	0.102892 18.5378 	-0.160146 	0.102101 18.5165 	-0.166223 	0.101309 18.4953 	-0.172305 	0.100518 18.4738 	-0.178454 	0.0997178 18.452 	-0.184555 	0.098936 18.4301 	-0.190662 	0.0981538 18.4083 	-0.196774 	0.0973714 18.3851 	-0.199356 	0.0966594 18.3616 	-0.200736 	0.0961757 18.2975 	-0.208487 	0.0946007 18.24 	-0.229738 	0.0925898 18.1825 	-0.25106 	0.0905762 18.1251 	-0.272454 	0.0885601 18.0665 	-0.28827 	0.0872673 17.9795 	-0.318366 	0.0865571 17.8984 	-0.354683 	0.0826421 17.8174 	-0.391126 	0.0787206 17.7365 	-0.427696 	0.0747927 17.6529 	-0.451245 	0.0744676 17.5133 	-0.510165 	0.0756997 17.3937 	-0.58718 	0.0709865 17.2744 	-0.664602 	0.0662568 17.1554 	-0.743152 	0.0616089 16.9864 	-0.825766 	0.0672277 16.8972 	-0.85756 	0.0764081 16.8217 	-0.933122 	0.07471 16.7446 	-1.01095 	0.0718067 16.6679 	-1.08921 	0.0688375 16.5873 	-1.17562 	0.0589979 16.4603 	-1.2898 	0.0724608 16.3745 	-1.42644 	0.0689713 16.29 	-1.56396 	0.0652555 16.2072 	-1.70103 	0.0634579 16.1191 	-1.83423 	0.0693144 16.0315 	-1.99841 	0.0787635 15.9705 	-2.17995 	0.0860618 15.884 	-2.38894 	0.0918918 15.8297 	-2.57824 	0.0911548 15.8186 	-2.62327 	0.0906147 15.8004 	-2.71153 	0.0879005 15.7828 	-2.79966 	0.0851005 15.766 	-2.88766 	0.0822151 15.7499 	-2.97551 	0.0792443 15.7211 	-3.06002 	0.0841765 15.7778 	-3.36549 	0.0712097 15.7323 	-3.71614 	0.0638377 15.874 	-4.108 	0.0451742 16.1955 	-4.51794 	0.0162651 16.5072 	-4.85952 	-0.0142941 16.7396 	-4.92102 	-0.0193818 16.9554 	-5.03941 	-0.0298046 17.1479 	-5.20782 	-0.0469149 17.335 	-5.36836 	-0.0652939 17.5195 	-5.63988 	-0.0790859 17.6115 	-5.69075 	-0.0891405 17.698 	-5.70726 	-0.0997505 17.7829 	-5.71481 	-0.110503 17.8678 	-5.72248 	-0.121252 17.9529 	-5.73029 	-0.132012 18.1827 	-5.78754 	-0.157916 18.4148 	-5.84512 	-0.181038 18.6521 	-5.90311 	-0.197863 18.8867 	-5.95516 	-0.214691 19.1072 	-5.97759 	-0.231463 19.5165 	-5.82864 	-0.279868 19.9307 	-5.68572 	-0.327145 20.3337 	-5.56336 	-0.370326 20.6199 	-5.44334 	-0.402659 20.8953 	-5.33167 	-0.433668 21.2944 	-5.13568 	-0.487878 21.6182 	-4.86612 	-0.525473 21.8406 	-4.49802 	-0.546777 22.0717 	-4.14245 	-0.58045 22.3568 	-3.44628 	-0.609023 22.5504 	-3.10889 	-0.630289 22.6231 	-2.68622 	-0.649739 22.7015 	-2.27043 	-0.663753 22.7888 	-1.85668 	-0.676977 22.8548 	-1.35054 	-0.687737 22.7345 	-1.10011 	-0.687028 22.6067 	-0.792526 	-0.69145 22.4851 	-0.483064 	-0.695883 22.3845 	-0.166262 	-0.699462 22.2377 	0.190862 	-0.704621 21.9588 	0.350413 	-0.695101 21.7335 	0.52924 	-0.693365 21.5278 	0.693239 	-0.692667 21.323 	0.85872 	-0.691801 21.1564 	1.00458 	-0.69857 20.8771 	1.02542 	-0.686372 20.6888 	1.07197 	-0.686055 20.5006 	1.11883 	-0.685658 20.3108 	1.17617 	-0.681687 20.2118 	1.25995 	-0.686106 19.9637 	1.36011 	-0.673006 19.8241 	1.44496 	-0.669536 19.6857 	1.53203 	-0.669631 19.5474 	1.61984 	-0.669625 19.5378 	1.64899 	-0.671417 19.2887 	1.71307 	-0.655701 19.1657 	1.70412 	-0.660058 19.0427 	1.69518 	-0.6644 18.9191 	1.68613 	-0.666718 18.8723 	1.67855 	-0.684747 18.6033 	1.75703 	-0.666223 18.4626 	1.71908 	-0.667219 18.3217 	1.67605 	-0.666231 18.1809 	1.63263 	-0.665341 18.0443 	1.53506 	-0.624362 17.815 	1.38432 	-0.598115 17.6503 	1.29073 	-0.605603 17.4858 	1.19603 	-0.61346 17.2973 	1.07276 	-0.599345 17.0433 	1.01123 	-0.549666 16.963 	0.74293 	-0.600588 16.837 	0.629882 	-0.653167 16.7028 	0.527274 	-0.698609 16.5694 	0.424186 	-0.74494 16.4516 	0.339507 	-0.814445 16.3155 	0.195784 	-0.891747 16.2071 	0.128565 	-0.967262 16.0998 	0.0618736 	-1.04331 16.0109 	-0.00904329 	-1.14161 15.9349 	-0.0496918 	-1.28445 15.8442 	-0.10431 	-1.37486 15.7225 	-0.126712 	-1.46 15.5988 	-0.159979 	-1.53432 15.4759 	-0.192452 	-1.60904 15.4267 	-0.205218 	-1.63935 15.4114 	-0.210495 	-1.64889 15.3961 	-0.215774 	-1.65843 15.3808 	-0.221056 	-1.66799 15.3655 	-0.226341 	-1.67756 15.3507 	-0.229847 	-1.68401 15.1558 	-0.277346 	-1.73779 14.9644 	-0.329377 	-1.78971 14.773 	-0.381034 	-1.84213 14.5432 	-0.419023 	-1.90132 14.3195 	-0.504773 	-1.98534 13.9204 	-0.564083 	-1.99229 13.5877 	-0.692512 	-1.98667 13.3097 	-0.814444 	-2.00484 13.0335 	-0.936614 	-2.02405 12.8079 	-1.1945 	-2.08295 12.3859 	-1.3051 	-2.10685 11.9519 	-1.52976 	-2.12478 11.5138 	-1.83054 	-2.13988 10.994 	-2.1713 	-2.38949 10.4103 	-2.57456 	-2.78126 9.7078 	-2.71598 	-2.94613 8.40766 	-2.41557 	-2.52499 6.88189 	-1.95149 	-1.88062 5.35181 	-1.48907 	-1.22754 4.61268 	-1.26797 	-0.906381 3.77146 	-1.1955 	-0.631786 2.92153 	-0.987375 	-0.499925 2.09435 	-0.799342 	-0.374084 1.31444 	-0.6525 	-0.26066 0 	0 	0
19.1904 	-0.0552947 	0.116815 19.1901 	-0.0553198 	0.116835 19.1898 	-0.0553449 	0.116854 19.1895 	-0.05537 	0.116874 19.1892 	-0.0553951 	0.116893 19.1889 	-0.0554202 	0.116912 19.1757 	-0.0598795 	0.117072 19.1609 	-0.0613487 	0.118256 19.1461 	-0.0628188 	0.119441 19.1317 	-0.0642684 	0.120471 19.1137 	-0.0613398 	0.122272 19.0933 	-0.0651018 	0.122903 19.0733 	-0.0677409 	0.124084 19.0532 	-0.0703688 	0.125415 19.0331 	-0.0729986 	0.126747 19.0127 	-0.0725675 	0.128196 18.9887 	-0.0763158 	0.128725 18.9653 	-0.0801609 	0.129942 18.9419 	-0.0840094 	0.13116 18.9186 	-0.0878704 	0.132319 18.8951 	-0.088544 	0.133477 18.8664 	-0.093282 	0.133981 18.8386 	-0.0986663 	0.134977 18.8108 	-0.10405 	0.136011 18.783 	-0.10944 	0.137045 18.7554 	-0.11162 	0.137842 18.7201 	-0.117343 	0.137968 18.6861 	-0.125094 	0.138783 18.6521 	-0.132865 	0.139601 18.6181 	-0.140646 	0.140419 18.5839 	-0.143937 	0.14067 18.5377 	-0.151979 	0.141241 18.494 	-0.163143 	0.142835 18.4503 	-0.174333 	0.144429 18.4067 	-0.185548 	0.146024 18.3624 	-0.195056 	0.147331 18.3034 	-0.212097 	0.148597 18.2463 	-0.231286 	0.150443 18.1892 	-0.25052 	0.152289 18.1321 	-0.2698 	0.154136 18.0707 	-0.27786 	0.156141 17.9801 	-0.293537 	0.161897 17.9018 	-0.327373 	0.166542 17.8236 	-0.36137 	0.171184 17.7454 	-0.395529 	0.175822 17.6669 	-0.427621 	0.180117 17.5474 	-0.492943 	0.19074 17.4349 	-0.562366 	0.202204 17.3225 	-0.632148 	0.213668 17.2103 	-0.702294 	0.225129 17.0416 	-0.762391 	0.245087 16.953 	-0.80188 	0.259254 16.88 	-0.867327 	0.270019 16.8083 	-0.934215 	0.280498 16.7369 	-1.00142 	0.290926 16.6662 	-1.07075 	0.302099 16.5752 	-1.18251 	0.319393 16.4926 	-1.29685 	0.336893 16.4108 	-1.4117 	0.354292 16.3297 	-1.52708 	0.371587 16.2166 	-1.63045 	0.396442 16.1735 	-1.66639 	0.407918 16.1289 	-1.70144 	0.419957 16.102 	-1.76019 	0.427559 16.08 	-1.8256 	0.4339 16.07 	-1.85752 	0.437013 16.0306 	-1.99544 	0.449561 15.9933 	-2.1333 	0.461607 15.9584 	-2.27111 	0.473148 15.9186 	-2.41291 	0.485429 15.8979 	-2.47283 	0.491127 15.8883 	-2.50495 	0.493917 15.8788 	-2.53707 	0.496683 15.8693 	-2.56918 	0.499427 15.86 	-2.60129 	0.502147 15.8486 	-2.62945 	0.506139 15.858 	-2.96171 	0.511396 15.8569 	-3.30734 	0.520542 15.861 	-3.65124 	0.528402 15.8701 	-3.99331 	0.534995 16.1302 	-4.27437 	0.478085 16.2784 	-4.37591 	0.440611 16.4174 	-4.49533 	0.409002 16.5574 	-4.61449 	0.377088 16.7042 	-4.79433 	0.347062 16.8404 	-4.98004 	0.336222 17.0454 	-5.11802 	0.276643 17.2753 	-5.21917 	0.221494 17.4999 	-5.33542 	0.165607 17.725 	-5.4514 	0.109511 17.9285 	-5.55575 	0.0587325 17.9666 	-5.57282 	0.0492271 18.0047 	-5.58988 	0.0397178 18.0429 	-5.60693 	0.0302047 18.0802 	-5.62376 	0.0212772 18.114 	-5.63962 	0.0149931 18.4365 	-5.65234 	-0.077159 18.7849 	-5.67811 	-0.173808 19.1484 	-5.712 	-0.273124 19.4442 	-5.6807 	-0.360034 19.7317 	-5.71675 	-0.463557 20.0691 	-5.3727 	-0.58472 20.3441 	-5.12883 	-0.703712 20.6218 	-4.88876 	-0.823385 21.0459 	-4.55665 	-0.982278 21.315 	-4.43927 	-1.1112 21.5999 	-4.07349 	-1.25134 21.7652 	-3.68462 	-1.36457 21.8922 	-3.37791 	-1.46105 22.0257 	-3.06711 	-1.55961 22.2255 	-2.56883 	-1.68675 22.2234 	-2.4191 	-1.72605 22.1995 	-2.11273 	-1.75485 22.1795 	-1.80459 	-1.7848 22.1634 	-1.49489 	-1.8159 22.1528 	-1.22282 	-1.84412 22.1542 	-1.15371 	-1.85461 22.1557 	-1.08453 	-1.86517 22.1574 	-1.01527 	-1.8758 22.1594 	-0.945929 	-1.8865 22.1353 	-0.884111 	-1.8786 21.9692 	-0.624247 	-1.85478 21.8115 	-0.371132 	-1.82602 21.6568 	-0.113227 	-1.79926 21.5053 	0.149607 	-1.77458 21.3384 	0.356501 	-1.72224 21.1373 	0.538951 	-1.70421 20.962 	0.68707 	-1.67397 20.7872 	0.837382 	-1.64447 20.613 	0.989952 	-1.61574 20.4352 	1.03915 	-1.57824 20.294 	1.19893 	-1.58042 20.1559 	1.32381 	-1.56849 20.0189 	1.45188 	-1.55531 19.8822 	1.58158 	-1.5426 19.7631 	1.57587 	-1.45875 19.6337 	1.6904 	-1.51678 19.4979 	1.71938 	-1.49911 19.3622 	1.74873 	-1.4816 19.2286 	1.75069 	-1.46194 19.0677 	1.71676 	-1.40205 18.9433 	1.87966 	-1.42793 18.8059 	1.89768 	-1.41257 18.6606 	1.95778 	-1.39899 18.5128 	2.01737 	-1.38101 18.3287 	1.96284 	-1.27155 18.1403 	2.08274 	-1.35452 17.9624 	2.07693 	-1.34402 17.7808 	2.05725 	-1.3261 17.5373 	2.04233 	-1.29662 17.1118 	2.03384 	-1.21161 17.088 	1.81326 	-1.26356 16.941 	1.65882 	-1.26931 16.7487 	1.54224 	-1.24801 16.4787 	1.44981 	-1.16433 16.0436 	1.36872 	-0.987449 15.9636 	0.920804 	-1.05264 15.8318 	0.607528 	-1.06778 15.6615 	0.437747 	-1.05675 15.4391 	0.319402 	-1.03193 15.1413 	0.268585 	-0.979887 15.2414 	0.0223857 	-1.03307 15.2109 	-0.12285 	-1.06239 15.1108 	-0.214226 	-1.07897 14.9652 	-0.279449 	-1.06273 14.7644 	-0.252521 	-1.00489 14.7963 	-0.358041 	-1.10478 14.6932 	-0.437125 	-1.14273 14.5661 	-0.511543 	-1.16435 14.4232 	-0.580102 	-1.17977 14.176 	-0.608803 	-1.15627 14.0877 	-0.606342 	-1.20595 13.9101 	-0.619598 	-1.29594 13.7157 	-0.636149 	-1.39416 13.4999 	-0.631047 	-1.49551 13.221 	-0.522396 	-1.61753 12.748 	-0.368955 	-1.89459 10.8229 	-0.440663 	-1.54323 9.08722 	-0.448934 	-1.22632 7.52923 	-0.417003 	-0.96781 6.70168 	-0.397901 	-0.832791 6.59492 	-0.389872 	-0.820683 6.48821 	-0.38184 	-0.808583 6.38152 	-0.373805 	-0.796492 6.27289 	-0.369511 	-0.782041 6.15898 	-0.37214 	-0.762966 5.38695 	-0.357187 	-0.6706 4.61824 	-0.342784 	-0.578989 3.85413 	-0.329128 	-0.488401 3.09664 	-0.316538 	-0.39927 2.56503 	-0.486431 	-0.331369 2.607 	-0.499175 	-0.390099 2.653 	-0.512223 	-0.449298 2.70281 	-0.525548 	-0.50892 2.57758 	-0.486661 	-0.50029 1.6008 	-0.197582 	-0.16105 2.23707 	-0.151908 	-0.29807 3.04817 	-0.134211 	-0.448919 4.00137 	-0.175312 	-0.561862 3.1626 	-0.128454 	-0.124645 2.30321 	-0.0814575 	0.291322 3.55961 	-0.357536 	0.657262 3.99125 	-0.294989 	1.12679 3.77404 	0.0378892 	1.69048 3.45394 	0.329377 	2.12847 5.31717 	0.0171561 	3.22185 7.21197 	-0.52271 	4.33052 9.116 	-1.15384 	5.44259 7.74707 	-0.523755 	4.67543 6.17258 	0.209323 	3.79073 6.00101 	0.082234 	5.12871 6.30197 	-0.338085 	6.40732 4.9831 	-0.0839343 	6.17379 3.19044 	0.41341 	4.99412 2.69485 	0.56839 	4.51378 4.06753 	-0.413624 	6.5147 4.81851 	-0.922732 	8.28446 5.00881 	-1.05825 	9.02811 5.04731 	-1.16286 	9.03874 5.08103 	-1.26728 	9.05515 5.07633 	-1.31433 	9.09995 5.07161 	-1.36138 	9.14466 5.06687 	-1.40844 	9.18928 5.00677 	-1.38168 	8.95914 4.93908 	-1.34515 	8.69265 4.91237 	-1.81443 	9.8271 4.75148 	-2.15521 	10.2746 4.41545 	-2.33374 	11.0628 3.89288 	-1.90626 	9.44482 3.15528 	-0.805066 	5.1296 2.76647 	-1.52118 	6.77138 1.64229 	-1.19732 	4.63238 2.63935 	-1.72007 	7.59577 3.41066 	-2.03033 	9.74726 3.03357 	-1.32995 	7.94529 3.08313 	-1.55494 	9.23976 3.12831 	-1.49867 	9.48281 3.17402 	-1.36871 	9.45178 3.2211 	-1.23789 	9.4186 3.28499 	-1.06435 	9.37201 3.13228 	-1.07808 	9.4798 2.98265 	-1.08641 	9.58434 2.70921 	-0.88504 	9.07934 2.46497 	-0.622804 	8.39378 2.3537 	-0.344915 	8.01301 2.54319 	-0.447345 	8.54266 2.85789 	-0.445325 	9.38214 2.5863 	-0.346903 	8.31332 2.31673 	-0.250081 	7.25163 2.4264 	0.177349 	6.63614 2.32508 	-0.108942 	7.36915 2.46209 	-0.075922 	7.63962 2.61836 	-0.0469189 	7.96613 2.80453 	0.0663032 	7.93094 3.06767 	0.405773 	6.91212 3.07094 	0.343131 	7.21289 3.0955 	0.334407 	7.27257 3.13227 	0.355389 	7.20082 3.16968 	0.376844 	7.12833 3.21042 	0.400325 	7.04994 3.15255 	0.298007 	7.04857 3.09231 	0.194341 	7.05341 2.80299 	0.124132 	6.10156 3.07814 	0.285806 	6.48458 3.4084 	0.678291 	5.7376 3.15132 	0.532845 	5.94398 3.08663 	0.729564 	5.67314 3.0318 	0.918982 	5.39522 3.00805 	1.21689 	4.73318 3.04598 	1.72789 	3.8425 3.05305 	1.76701 	4.00085 3.05979 	1.80447 	4.16112 2.96039 	1.88034 	4.16684 2.83354 	1.96591 	4.12772 2.68619 	2.06576 	4.07835 2.51675 	2.40917 	4.20832 2.49347 	2.72963 	4.29498 2.47203 	3.04213 	4.3623 2.11941 	2.53717 	3.54156 1.39634 	1.18402 	1.76644 1.53282 	1.46114 	2.29614 1.74631 	1.75436 	3.33693 1.526 	1.5007 	2.6561 1.12809 	1.13504 	1.79831 0.425708 	0.569094 	0.61835 0.410609 	0.584953 	0.6174 0.396114 	0.601958 	0.617263 0.382236 	0.620107 	0.617943 0.349118 	0.566558 	0.577245 0.299962 	0.463708 	0.506777 0.147712 	0.633937 	0.336736 0.0443161 	0.684488 	0.207275 -0.0207093 	0.656145 	0.112931 -0.0587506 	0.577242 	0.0443416 0 	0 	0
19.1945 	-0.0541668 	0.13558 19.1942 	-0.0541903 	0.135624 19.1939 	-0.0542138 	0.135668 19.1935 	-0.0542373 	0.135711 19.1932 	-0.0542608 	0.135755 19.1929 	-0.0542844 	0.135798 19.1796 	-0.0587656 	0.137696 19.1648 	-0.0602365 	0.138885 19.1513 	-0.0615542 	0.140466 19.1378 	-0.0628667 	0.142061 19.12 	-0.0602555 	0.143228 19.0991 	-0.0636993 	0.145191 19.079 	-0.0662305 	0.147258 19.0589 	-0.0687634 	0.149325 19.0388 	-0.0713822 	0.150715 19.0188 	-0.0706966 	0.152184 18.9945 	-0.0745485 	0.15415 18.9712 	-0.0783464 	0.155484 18.948 	-0.081967 	0.157566 18.9247 	-0.0855909 	0.159649 18.9018 	-0.0864635 	0.161176 18.8732 	-0.0906175 	0.162914 18.8456 	-0.0957129 	0.164932 18.8179 	-0.100814 	0.166951 18.7906 	-0.106043 	0.168253 18.763 	-0.107572 	0.169589 18.7277 	-0.113631 	0.171487 18.6933 	-0.121219 	0.173256 18.66 	-0.128394 	0.176144 18.6266 	-0.13558 	0.179033 18.5921 	-0.139449 	0.181381 18.5471 	-0.146895 	0.183838 18.5044 	-0.157792 	0.187034 18.4617 	-0.168709 	0.190231 18.419 	-0.179693 	0.193302 18.3749 	-0.185318 	0.195746 18.3147 	-0.198697 	0.200132 18.2605 	-0.215689 	0.205309 18.2064 	-0.232725 	0.210486 18.1524 	-0.249806 	0.215664 18.0976 	-0.261938 	0.220109 18.0142 	-0.282558 	0.229764 17.9429 	-0.311027 	0.239796 17.8717 	-0.339598 	0.249832 17.8005 	-0.368271 	0.259871 17.7207 	-0.386112 	0.266831 17.5949 	-0.436539 	0.290552 17.496 	-0.491209 	0.310864 17.398 	-0.545624 	0.331164 17.3001 	-0.600397 	0.351455 17.1517 	-0.662555 	0.382957 17.0859 	-0.689537 	0.401743 17.0223 	-0.736201 	0.419538 16.9539 	-0.783907 	0.440036 16.8861 	-0.832183 	0.460462 16.8301 	-0.894752 	0.479591 16.7159 	-0.962725 	0.509121 16.654 	-1.04701 	0.535312 16.5927 	-1.13166 	0.561413 16.527 	-1.22077 	0.586851 16.4396 	-1.30501 	0.620644 16.3415 	-1.44618 	0.656418 16.28 	-1.58898 	0.685994 16.2234 	-1.72305 	0.717093 16.1684 	-1.85805 	0.747781 16.0903 	-2.01688 	0.784374 16.0774 	-2.0858 	0.802037 16.0687 	-2.16292 	0.812823 16.0606 	-2.2401 	0.823423 16.0529 	-2.31735 	0.833837 16.048 	-2.36987 	0.840784 16.0306 	-2.51571 	0.863716 16.0147 	-2.6614 	0.886153 16.0005 	-2.80695 	0.908095 15.9777 	-2.95681 	0.927449 15.9228 	-3.16728 	0.960339 16.1214 	-3.38893 	0.906235 16.0464 	-3.71596 	0.964832 16.2106 	-4.07991 	0.914909 16.4984 	-4.3806 	0.796504 16.8536 	-4.62622 	0.637158 17.0286 	-4.74198 	0.541356 17.1948 	-4.83077 	0.461483 17.3608 	-4.91709 	0.382892 17.5257 	-4.99902 	0.306767 17.7151 	-5.10584 	0.224003 17.7395 	-5.10578 	0.212605 17.7616 	-5.10519 	0.202011 17.7821 	-5.10424 	0.191963 17.8026 	-5.10331 	0.181915 17.8233 	-5.10237 	0.171765 18.0537 	-5.15795 	0.0544935 18.2626 	-5.2207 	-0.0546869 18.476 	-5.26087 	-0.169359 18.6911 	-5.29704 	-0.285421 18.9166 	-5.27764 	-0.414715 19.2138 	-5.1594 	-0.608993 19.4988 	-5.08692 	-0.807057 19.7381 	-4.98111 	-0.979509 19.9361 	-4.84581 	-1.12891 20.1134 	-4.6856 	-1.27335 20.3706 	-4.459 	-1.51624 20.5324 	-4.24324 	-1.67451 20.6972 	-4.03069 	-1.83431 20.8305 	-3.8195 	-1.96611 21.0212 	-3.33589 	-2.13486 21.0223 	-3.16643 	-2.24518 21.0476 	-2.86216 	-2.31917 21.0976 	-2.5824 	-2.39859 21.1524 	-2.30649 	-2.48148 21.2096 	-2.00062 	-2.56458 21.2046 	-1.87917 	-2.57943 21.1993 	-1.7772 	-2.5853 21.1946 	-1.67527 	-2.59155 21.1902 	-1.57337 	-2.59819 21.1821 	-1.35684 	-2.61313 21.1778 	-1.16644 	-2.63238 21.1258 	-0.9865 	-2.63566 21.0731 	-0.806407 	-2.63855 21.0217 	-0.625729 	-2.64169 20.9742 	-0.44878 	-2.64329 20.9561 	-0.406125 	-2.63741 20.9377 	-0.359707 	-2.63066 20.9194 	-0.313151 	-2.62394 20.9012 	-0.266457 	-2.61725 20.8933 	-0.246333 	-2.61439 20.7969 	0.00267728 	-2.57773 20.7024 	0.254583 	-2.54166 20.6097 	0.509415 	-2.50619 20.526 	0.769611 	-2.48046 20.4444 	0.975279 	-2.48322 20.2695 	1.1725 	-2.40492 20.1258 	1.27969 	-2.36883 19.9907 	1.36384 	-2.32987 19.8563 	1.44864 	-2.29078 19.6393 	1.43016 	-2.29142 19.5331 	1.66661 	-2.24429 19.3989 	1.7369 	-2.24128 19.2648 	1.80721 	-2.23843 19.1307 	1.87753 	-2.23576 18.9749 	1.92138 	-2.24175 18.9399 	1.94242 	-2.22365 18.8964 	1.95607 	-2.21842 18.853 	1.96972 	-2.2132 18.8095 	1.98337 	-2.20799 18.7676 	1.98392 	-2.20259 18.6611 	2.0062 	-2.18936 18.5546 	2.02856 	-2.17616 18.4481 	2.05102 	-2.163 18.3416 	2.07357 	-2.14986 18.1947 	1.96744 	-2.08892 18.0744 	2.17867 	-2.11107 17.9274 	2.25015 	-2.08905 17.7805 	2.32191 	-2.06714 17.6273 	2.39962 	-2.04048 17.3397 	2.31865 	-1.866 17.2812 	2.32626 	-1.92848 17.132 	2.28657 	-1.89875 16.9551 	2.17293 	-1.8444 16.7092 	1.99781 	-1.69658 16.3996 	1.76467 	-1.46226 16.347 	1.85491 	-1.5033 16.2503 	1.89195 	-1.51017 16.0584 	1.8103 	-1.44337 15.5908 	1.69815 	-1.13914 15.0889 	1.56103 	-0.806259 15.1683 	1.30478 	-1.00087 15.1804 	1.08122 	-1.13944 14.9536 	0.966985 	-1.07653 14.3827 	1.09964 	-0.750178 13.8105 	1.2423 	-0.421954 13.858 	0.656595 	-0.652094 13.9085 	0.0542263 	-0.884808 13.6132 	-0.172489 	-0.856035 13.0555 	-0.0858378 	-0.737989 12.4787 	0.0171514 	-0.606867 12.3432 	-0.624719 	-0.803728 12.2012 	-1.23603 	-0.980075 11.8959 	-1.53558 	-0.941316 11.4268 	-1.5821 	-0.764887 10.8197 	-1.49415 	-0.49789 10.7626 	-2.49313 	-0.970536 8.28925 	-1.93019 	-0.748987 5.50795 	-1.16804 	-0.44038 3.79362 	-0.703932 	-0.254525 3.20451 	-0.637298 	-0.217902 2.60166 	-0.570382 	-0.178761 2.01511 	-0.510746 	-0.14087 1.45614 	-0.463251 	-0.105086 1.12269 	-0.600498 	-0.0572634 1.5057 	-1.14332 	-0.017587 1.68381 	-1.40114 	0.0018079 1.50628 	-1.25341 	0.00161729 1.32875 	-1.10568 	0.00142668 0 	0 	0