# vtk DataFile Version 2.0
track0
ASCII
DATASET POLYDATA
POINTS 18147 float
-1.001 -0.05 0.316889
-1.0008 -0.0500006 0.316891
-1.00059 -0.0500012 0.316892
-1.00039 -0.0500018 0.316893
-1.00019 -0.0500024 0.316894
-0.999982 -0.050003 0.316895
-0.987481 -0.0500399 0.316959
-0.97498 -0.0500786 0.317024
-0.962479 -0.0501182 0.31709
-0.949978 -0.0501587 0.317156
-0.937477 -0.0502002 0.317223
-0.924975 -0.0502411 0.317289
-0.912473 -0.0502842 0.317357
-0.89997 -0.0503291 0.317424
-0.887468 -0.0503757 0.317492
-0.874966 -0.0504242 0.317561
-0.862462 -0.0504728 0.31763
-0.849959 -0.0505228 0.3177
-0.837455 -0.0505754 0.31777
-0.824951 -0.0506307 0.31784
-0.812448 -0.0506886 0.31791
-0.79995 -0.0507485 0.317981
-0.787453 -0.050812 0.318052
-0.774955 -0.0508793 0.318123
-0.762458 -0.0509504 0.318195
-0.749961 -0.0510254 0.318266
-0.737547 -0.0511009 0.318337
-0.725134 -0.0511784 0.318408
-0.712721 -0.0512614 0.318478
-0.700308 -0.0513498 0.318548
-0.687895 -0.0514437 0.318618
-0.681889 -0.0514916 0.318651
-0.675884 -0.0515415 0.318684
-0.669878 -0.0515934 0.318718
-0.663872 -0.0516473 0.31875
-0.657805 -0.0517038 0.318783
-0.651644 -0.0517633 0.318817
-0.645483 -0.051825 0.31885
-0.639323 -0.0518887 0.318882
-0.633162 -0.0519545 0.318915
-0.627002 -0.0520213 0.318947
-0.61425 -0.0521607 0.319014
-0.601499 -0.052306 0.31908
-0.588748 -0.0524666 0.319145
-0.575997 -0.0526427 0.319208
-0.563245 -0.0528344 0.319271
-0.550725 -0.0530342 0.319331
-0.538206 -0.0532558 0.319391
-0.525687 -0.0535039 0.319449
-0.513168 -0.0537787 0.319505
-0.500645 -0.0540807 0.319557
-0.488224 -0.0543982 0.31961
-0.475804 -0.05476 0.319663
-0.463386 -0.0551792 0.319714
-0.45097 -0.0556569 0.319762
-0.438537 -0.0561955 0.319806
-0.432347 -0.0564964 0.319831
-0.426157 -0.0568106 0.319859
-0.419968 -0.0571539 0.319886
-0.413781 -0.0575274 0.319913
-0.407583 -0.0579325 0.319939
-0.401362 -0.0583733 0.319961
-0.395145 -0.0588605 0.319988
-0.388933 -0.0594017 0.320014
-0.382725 -0.0599976 0.320039
-0.376477 -0.0606534 0.320063
-0.371926 -0.0611713 0.320083
-0.367382 -0.0617378 0.320105
-0.362844 -0.0623572 0.32013
-0.358315 -0.0630384 0.320156
-0.35722 -0.0632167 0.320162
-0.354809 -0.0636165 0.320176
-0.3524 -0.0640299 0.32019
-0.349993 -0.0644568 0.320203
-0.347589 -0.0648971 0.320215
-0.345163 -0.0653556 0.320227
-0.338842 -0.0665858 0.320261
-0.332545 -0.067929 0.32029
-0.326278 -0.0694093 0.320315
-0.320045 -0.0710225 0.320333
-0.313555 -0.0728328 0.320339
-0.310349 -0.0737767 0.320336
-0.307142 -0.0747195 0.320333
-0.303938 -0.0756717 0.320327
-0.30074 -0.076643 0.320318
-0.297521 -0.0776399 0.320306
-0.296775 -0.0778799 0.320303
-0.29603 -0.0781207 0.320299
-0.295285 -0.0783611 0.320295
-0.294539 -0.0786007 0.32029
-0.293792 -0.0788399 0.320285
-0.291436 -0.0795921 0.320268
-0.289079 -0.0803423 0.320247
-0.286721 -0.0810906 0.320224
-0.284363 -0.081837 0.320199
-0.28201 -0.0825788 0.320172
-0.278828 -0.0835744 0.320134
-0.275632 -0.0845287 0.320088
-0.272426 -0.0854435 0.320035
-0.269209 -0.0863235 0.319977
-0.266105 -0.0871429 0.319916
-0.262998 -0.0879357 0.319852
-0.259881 -0.0886874 0.31978
-0.256753 -0.0893915 0.319704
-0.253613 -0.0900383 0.319626
-0.250592 -0.0906053 0.319546
-0.247522 -0.0910785 0.319463
-0.244445 -0.0915027 0.319377
-0.241361 -0.0918689 0.319288
-0.238271 -0.092178 0.319198
-0.235285 -0.0924212 0.319109
-0.232058 -0.0926119 0.319012
-0.228829 -0.0927682 0.318914
-0.225598 -0.0928814 0.318815
-0.222365 -0.0929509 0.318715
-0.219139 -0.0929748 0.318615
-0.215946 -0.0929474 0.318513
-0.212753 -0.0928965 0.318412
-0.209562 -0.0928188 0.318311
-0.20637 -0.092716 0.318208
-0.203165 -0.0925869 0.318104
-0.20011 -0.0924419 0.318003
-0.197056 -0.0922918 0.317903
-0.194002 -0.0921336 0.317801
-0.190948 -0.0919669 0.317699
-0.187891 -0.0917899 0.317597
-0.184891 -0.0916029 0.317495
-0.181892 -0.0913986 0.317394
-0.178894 -0.0911801 0.317292
-0.175898 -0.0909469 0.31719
-0.172893 -0.0906979 0.317088
-0.169846 -0.0904407 0.316983
-0.166799 -0.0901701 0.316879
-0.163752 -0.0898992 0.316774
-0.160706 -0.089628 0.316668
-0.157657 -0.0893563 0.316561
-0.154536 -0.0890787 0.316447
-0.151418 -0.0887842 0.316336
-0.148299 -0.0884938 0.316223
-0.145179 -0.0882084 0.31611
-0.14206 -0.0879283 0.315995
-0.138602 -0.0876341 0.315876
-0.135142 -0.0873653 0.31576
-0.131681 -0.0871122 0.315641
-0.128219 -0.0868754 0.315519
-0.124777 -0.0866619 0.3154
-0.121533 -0.0864694 0.315295
-0.118288 -0.0863273 0.315181
-0.115042 -0.0862059 0.315055
-0.111796 -0.0861034 0.314919
-0.108571 -0.0860208 0.314774
-0.105315 -0.0859536 0.314613
-0.10206 -0.0859146 0.314435
-0.0988052 -0.0858888 0.314241
-0.0955516 -0.0858762 0.31403
-0.0922866 -0.0858781 0.313797
-0.089071 -0.0858881 0.313538
-0.0858571 -0.0859093 0.313259
-0.082645 -0.0859352 0.312961
-0.0794346 -0.0859681 0.312645
-0.0781406 -0.0859842 0.31251
-0.0777565 -0.0859893 0.312469
-0.0773725 -0.0859945 0.312428
-0.0769884 -0.0859999 0.312387
-0.0766044 -0.0860054 0.312345
-0.0762204 -0.0860111 0.312303
-0.073425 -0.086053 0.311997
-0.0706313 -0.0861041 0.311676
-0.0678394 -0.0861655 0.311342
-0.0650494 -0.0862375 0.310995
-0.0622484 -0.0863182 0.310628
-0.0593134 -0.0864217 0.310221
-0.0563808 -0.0865405 0.309802
-0.0534509 -0.0866898 0.309373
-0.0505245 -0.0868689 0.308933
-0.047552 -0.0870825 0.308471
-0.0443084 -0.087385 0.307943
-0.0410724 -0.087726 0.307393
-0.0378488 -0.0881386 0.30682
-0.0346432 -0.0886482 0.306224
-0.0312818 -0.0893121 0.305494
-0.0288898 -0.0899037 0.304855
-0.0265367 -0.090562 0.30414
-0.0241861 -0.0912373 0.303434
-0.0218175 -0.091909 0.302787
-0.0206648 -0.0922297 0.302523
-0.018832 -0.0927335 0.302163
-0.0170109 -0.0933108 0.301858
-0.0152018 -0.0939222 0.301548
-0.013419 -0.0946026 0.30123
-0.0113977 -0.095606 0.300829
-1.001 -0.05 0.369521
-1.0008 -0.0500006 0.369522
-1.00059 -0.0500012 0.369524
-1.00039 -0.0500018 0.369525
-1.00019 -0.0500023 0.369526
-0.999983 -0.0500029 0.369527
-0.987482 -0.050039 0.369603
-0.974981 -0.0500781 0.36968
-0.96248 -0.0501181 0.369757
-0.949978 -0.0501591 0.369835
-0.937477 -0.0502011 0.369914
-0.924975 -0.0502412 0.369994
-0.912473 -0.0502839 0.370074
-0.899971 -0.0503283 0.370155
-0.887469 -0.0503744 0.370238
-0.874967 -0.0504224 0.370321
-0.862469 -0.0504701 0.370405
-0.849972 -0.0505203 0.37049
-0.837474 -0.0505731 0.370576
-0.824977 -0.0506286 0.370662
-0.812479 -0.0506866 0.370749
-0.800059 -0.0507448 0.370837
-0.787639 -0.0508062 0.370925
-0.775218 -0.0508713 0.371014
-0.762798 -0.05094 0.371104
-0.750377 -0.0510123 0.371195
-0.738235 -0.0510846 0.371284
-0.726092 -0.0511607 0.371374
-0.713949 -0.051242 0.371464
-0.701806 -0.0513285 0.371555
-0.689663 -0.0514202 0.371646
-0.676973 -0.0515185 0.371742
-0.664282 -0.0516226 0.371839
-0.651591 -0.0517345 0.371937
-0.638901 -0.0518544 0.372036
-0.62621 -0.0519824 0.372137
-0.613705 -0.0521152 0.372237
-0.601201 -0.0522601 0.372339
-0.588696 -0.0524186 0.372442
-0.576192 -0.0525908 0.372547
-0.563687 -0.0527769 0.372653
-0.551184 -0.0529692 0.372761
-0.53868 -0.0531733 0.372874
-0.526178 -0.0534019 0.37299
-0.513676 -0.0536554 0.37311
-0.50117 -0.0539341 0.373234
-0.488719 -0.0542355 0.373361
-0.476268 -0.0545853 0.373496
-0.46382 -0.0549868 0.373641
-0.451373 -0.055441 0.373794
-0.438911 -0.0559496 0.373957
-0.43269 -0.0562279 0.374047
-0.42647 -0.056522 0.374142
-0.420252 -0.0568416 0.374241
-0.414035 -0.0571871 0.374345
-0.407807 -0.0575597 0.374453
-0.40156 -0.0579611 0.374566
-0.395316 -0.0584066 0.374687
-0.389075 -0.0588973 0.374814
-0.382838 -0.0594338 0.374949
-0.376566 -0.0600204 0.375092
-0.37528 -0.0601497 0.375123
-0.373994 -0.0602821 0.375155
-0.372709 -0.0604177 0.375189
-0.371424 -0.0605581 0.375223
-0.370458 -0.0606678 0.375249
-0.365896 -0.0611952 0.375373
-0.361338 -0.0617625 0.375501
-0.356785 -0.0623698 0.375632
-0.352238 -0.0630169 0.375767
-0.350422 -0.0632922 0.375823
-0.349376 -0.0634549 0.375855
-0.34833 -0.0636199 0.375887
-0.347284 -0.0637869 0.37592
-0.346239 -0.0639562 0.375953
-0.34519 -0.0641282 0.375986
-0.338824 -0.0651843 0.376189
-0.332482 -0.0663689 0.376394
-0.326166 -0.0676863 0.376601
-0.319878 -0.0691338 0.376811
-0.313297 -0.0707897 0.377033
-0.310108 -0.0716348 0.377127
-0.306921 -0.0724913 0.377213
-0.303739 -0.0733627 0.377293
-0.300561 -0.0742485 0.377365
-0.29735 -0.0751699 0.377432
-0.294645 -0.07597 0.377486
-0.291942 -0.0767815 0.37753
-0.289241 -0.0775976 0.377564
-0.286542 -0.0784205 0.37759
-0.284109 -0.0791688 0.377605
-0.283595 -0.0793279 0.377607
-0.283082 -0.0794871 0.377608
-0.282569 -0.0796464 0.377609
-0.282056 -0.0798059 0.37761
-0.281542 -0.0799657 0.377611
-0.278203 -0.0810054 0.377613
-0.274859 -0.0820305 0.377599
-0.271511 -0.0830425 0.377568
-0.26816 -0.0840422 0.377521
-0.26484 -0.085012 0.377459
-0.261668 -0.0859311 0.377385
-0.258478 -0.0867851 0.377292
-0.255276 -0.0875923 0.377181
-0.252064 -0.0883538 0.377053
-0.248946 -0.0890289 0.376907
-0.245854 -0.0896727 0.376746
-0.242752 -0.0902577 0.376566
-0.239641 -0.0907845 0.376371
-0.236522 -0.0912656 0.376163
-0.233449 -0.0916936 0.375945
-0.231079 -0.0919675 0.375766
-0.228708 -0.0922256 0.375581
-0.226334 -0.0924516 0.375394
-0.223957 -0.0926449 0.375203
-0.221878 -0.0927852 0.375032
-0.221332 -0.0928154 0.374987
-0.220785 -0.0928438 0.374941
-0.220239 -0.0928705 0.374895
-0.219693 -0.0928956 0.374849
-0.219148 -0.0929188 0.374802
-0.216025 -0.0930436 0.374537
-0.212901 -0.0931323 0.374274
-0.209776 -0.0931855 0.374012
-0.20665 -0.0932019 0.373752
-0.203546 -0.0931803 0.373496
-0.200424 -0.0931281 0.373244
-0.197303 -0.0930485 0.372992
-0.194182 -0.0929462 0.372743
-0.191062 -0.0928205 0.372496
-0.187942 -0.0926707 0.372252
-0.184863 -0.0925141 0.372014
-0.181785 -0.0923323 0.371774
-0.178709 -0.0921303 0.371535
-0.175634 -0.0919073 0.371296
-0.172547 -0.0916617 0.371057
-0.169467 -0.0914161 0.370829
-0.166389 -0.0911511 0.370591
-0.163311 -0.0908797 0.370355
-0.160234 -0.0906018 0.370119
-0.157146 -0.0903206 0.369885
-0.154056 -0.0900424 0.369657
[...]
POINT_DATA 18147
 FIELD attributes 2
p 1 18147 float
18.3398 18.346 18.3521 18.3583 18.3644 18.3706 18.6392 18.9027 19.1662 19.4296 19.7407 20.1281 20.5125 20.897 21.2814 21.6756 22.128 22.5666 23.0052 23.4437 23.8819 24.4031 24.92 25.4369 25.9538 26.4863 27.1435 27.7704 28.3972 29.024 29.6501 30.0388 30.4236 30.8085 31.1933 31.5821 31.9778 32.3735 32.7692 33.1875 33.6094 34.7433 35.7652 36.7867 37.8078 38.8475 40.3477 41.7258 43.1031 44.4797 45.8639 48.1623 50.181 52.1965 54.2075 57.0677 58.3359 59.5939 60.881 62.1612 63.6653 65.5539 66.796 68.0161 69.2105 70.4675 71.4437 71.8348 72.4534 72.6998 72.7338 72.7956 72.8484 72.8925 72.9276 72.9708 71.561 71.1121 68.0755 62.394 55.7188 52.1261 48.1946 44.0723 40.09 35.2417 33.687 32.0961 30.4955 28.895 27.2922 22.907 18.4417 13.799 9.19153 4.77379 -1.37712 -7.87899 -16.0994 -23.911 -31.4582 -38.8455 -44.7588 -48.7 -52.9022 -58.1 -60.7174 -62.5591 -64.3315 -66.2416 -68.2411 -65.6093 -62.7027 -59.9564 -57.9093 -54.3599 -47.4454 -41.6251 -36.1843 -30.7632 -25.0843 -19.2124 -15.0335 -10.8531 -6.59103 -4.04407 -0.443316 2.04408 4.52235 6.99976 8.35292 11.8265 14.2606 16.6946 19.1582 20.9579 24.5358 27.3404 30.2259 33.1102 37.019 40.4618 43.8149 47.1625 50.9115 55.229 57.3708 59.6002 62.0023 64.3911 66.6981 68.5155 70.128 71.7259 72.929 73.4991 74.3606 75.6729 77.3147 78.9453 79.5982 79.7991 79.9998 80.2005 80.4011 80.5966 83.2479 85.8327 88.4182 91.556 94.7395 100.09 104.747 108.49 112.21 115.056 121.742 126.869 130.925 133.393 133.994 138.482 140.208 140.946 141.739 142.162 143.875 145.724 147.568 149.402 145.362
18.1652 18.1713 18.1773 18.1834 18.1895 18.1955 18.4495 18.7408 19.032 19.3156 19.6695 20.0632 20.4487 20.8346 21.2205 21.6096 22.0643 22.5047 22.9451 23.3853 23.8268 24.3611 24.8793 25.3978 25.9162 26.4317 27.0825 27.7104 28.3383 28.9661 29.5968 30.4372 31.2277 32.018 32.8083 33.6054 34.6549 35.6714 36.6876 37.7037 38.7925 40.3315 41.6685 43.0044 44.3391 45.6707 47.6792 49.5905 51.4988 53.4041 56.2336 57.6551 58.8792 60.0849 61.2847 62.5064 63.8556 65.0813 66.295 67.4965 69.175 69.7641 70.377 70.6633 70.8568 70.929 71.1691 71.3751 71.5471 71.7815 71.9382 72.0132 72.0871 72.1597 72.2312 72.298 71.3506 70.4276 69.4344 68.3727 63.7462 61.3263 58.4842 55.6273 52.5729 49.2002 44.9258 40.7425 36.5802 32.4115 28.6457 27.9026 27.1594 26.4161 25.7087 25.1629 19.485 12.5036 4.76006 -0.891306 -7.77522 -12.723 -17.8648 -23.1085 -31.5854 -38.0026 -43.092 -46.076 -48.142 -50.3954 -54.6422 -53.3786 -52.8571 -52.4521 -52.1643 -52.0164 -52.0158 -52.0215 -52.0335 -52.0517 -51.5301 -47.0201 -42.934 -38.9196 -34.9799 -30.9026 -25.5132 -21.181 -16.8537 -12.5317 -9.21261 -5.80258 -2.97724 -0.109002 2.75757 4.48091 7.42938 9.85978 12.2882 14.8825 17.0509 20.0248 22.6001 25.2101 27.8198 30.4431 34.0126 37.2969 40.6213 44.5218 50.0012 53.1017 56.684 60.38 64.803 70.8788 74.512 78.0266 81.0473 83.6157 85.7405 86.5905 87.7405 89.0487 90.5058 91.4666 92.2126 93.8381 95.4951 97.1846 99.098 102.549 105.286 107.877 110.323 111.806 116.987 116.187 115.087 114.305 113.92 113.921 113.922 113.923 113.949 114.022 114.277 114.526 114.767 114.997 115.365 115.2 115.034 114.869 114.517 113.296 110.798 108.126 90.2625 92.2486 93.9762 88.9544 88.3577 90.8579 92.588 80.0258 66.7564 53.2002 60.4958 69.2236 72.8234 75.6076 76.6098 76.0065 75.4527 76.6363 76.4845 75.1953 73.6757 72.1926 71.8729 71.5523 71.2308 70.9551 70.6869 62.8044 55.5978 49.9502 46.8649 46.8366 40.8567 41.2207 42.9559 45.9357 54.4404 52.0098 52.6952 54.2035 55.7232 57.7415 58.4976 59.2475 60.1605 60.7431 59.0098 59.1658 58.4327 58.4458 58.4466 59.1269 62.3252 64.7216 67.1245 69.3179 70.8429 71.4607 71.7546 71.8698 71.9819 72.0984 73.4981 74.9178 76.838 77.9416 78.5307 81.6128 83.3798 85.1107 85.8954 84.9582 84.3463 83.734 83.6411 83.6816 83.7136 84.3995 84.3908 84.3411 83.4487 81.6808 81.1828 80.0161 80.3421 80.7706 81.2799 81.3046 81.3281 81.3506 81.4146 81.5118 82.1247 82.5156 82.7378 82.8434 82.6711
18.0786 18.0848 18.0909 18.0971 18.1032 18.1094 18.3713 18.6631 18.9287 19.1932 19.5407 19.9406 20.3278 20.7151 21.1006 21.4877 21.9416 22.3801 22.8194 23.2587 23.6953 24.2242 24.7403 25.2563 25.7666 26.2842 26.9326 27.5667 28.1838 28.8009 29.4407 30.2599 31.0368 31.8136 32.5902 33.384 34.4539 35.4217 36.3891 37.3563 38.336 39.7968 41.0307 42.2636 43.4955 44.8227 46.9123 48.5808 50.2339 51.8845 54.4169 55.329 56.3822 57.5463 58.708 59.8944 61.6245 62.64 63.6462 64.6962 66.0785 67.3642 68.1333 68.8778 69.5977 70.6104 70.6545 70.5583 70.454 70.3416 70.2598 70.1478 70.0144 69.8595 69.8528 69.6679 66.6705 66.5352 63.0109 57.8554 51.1677 48.3401 45.091 41.789 38.4065 34.2192 33.9124 33.5282 33.0917 32.655 32.2139 27.8769 24.1474 20.1426 16.0605 11.3216 6.57314 0.272232 -4.35439 -7.47898 -11.8993 -16.1878 -19.0818 -22.0614 -24.5973 -29.7858 -27.0592 -27.2016 -27.845 -28.5916 -29.762 -29.0072 -28.8258 -28.6516 -28.4846 -28.1449 -27.8535 -26.3288 -24.7813 -23.2605 -21.8364 -21.3286 -20.7952 -20.2624 -19.7301 -19.5017 -16.6835 -13.8958 -11.1398 -8.97684 -7.5664 -2.05838 1.41032 4.64477 7.87778 9.8713 14.305 16.5154 18.7154 20.9048 23.389 24.2927 25.0224 25.7518 26.4809 27.1441 29.0975 31.0494 32.9999 34.9489 36.8122 40.0339 42.8425 45.6454 48.6144 51.9319 55.1739 58.3468 61.3272 64.3929 67.5316 70.4218 73.3949 76.5433 81.403 86.4189 88.7344 91.4297 95.1292 100.474 105.803 108.997 112.134 116.308 120.216 124.289 129.55 134.547 138.345 142.254 146.667 152.821 153.105 152.715 152.594 153.171 153.715 154.241 154.737 153.044 153.946 154.127 153.668 153.208 145.134
17.5436 17.5495 17.5553 17.5612 17.5671 17.573 17.8296 18.0861 18.3424 18.5988 18.9218 19.2992 19.6738 20.0483 20.4229 20.8034 21.2258 21.6539 22.082 22.5099 22.9305 23.4366 23.9333 24.43 24.9303 25.4349 26.047 26.6393 27.241 27.8428 28.4437 29.1682 29.8855 30.6028 31.3056 32.0076 32.892 33.7317 34.5923 35.4526 36.3209 37.379 38.4174 39.4556 40.4542 41.45 42.7545 43.9349 45.1742 46.4127 47.6871 49.1942 50.6031 52.0038 53.361 54.6505 56.4704 57.9469 59.6988 61.3034 63.1518 63.6482 64.0905 64.5309 64.9695 65.343 65.4941 65.6451 65.7958 65.9637 66.1457 66.7749 67.2559 67.7671 68.2875 68.5783 68.6224 68.6665 68.7105 68.7544 68.788 68.9743 69.1448 69.3067 69.4602 69.8234 69.3481 68.9619 68.5368 67.9767 66.9585 66.5579 65.5935 63.9311 62.5313 61.3349 60.9346 60.3168 59.7202 59.2768 58.8165 58.6723 58.5278 58.3832 58.2385 58.1163 57.4078 56.6911 55.9708 55.1372 54.7875 54.2692 53.7238 53.1489 52.4014 51.6014 51.7529 51.7815 51.4854 51.3343 51.2089 51.3705 51.3242 51.0966 51.2096 50.8754 51.3503 51.5061 51.4933 51.344 51.1855 51.1832 51.1809 51.1786 51.1763 51.1734 50.8637 51.1573 51.4937 51.7847 51.2776 51.4797 51.6348 51.551 51.1024 50.5774 50.9162 51.0919 50.8142 50.2732 49.591 49.4478 49.1257 48.8012 48.5862 48.4198 48.4329 48.4671 48.5012 48.5353 48.5692 48.7608 48.5852 48.3789 48.171 47.8289 48.2422 48.488 48.6701 48.3579 48.2748 48.9667 48.9375 48.8169 49.2828 49.5382 50.4805 50.3654 49.978 49.5591 49.4874 49.7109 48.7653 47.8022 46.8217 46.0774 44.7578 43.4172 42.0563 40.6265 38.8522 34.0336 28.2854 22.2061 16.1065 9.90116 8.50339 6.61752 4.65033 2.68095 0.819472 -12.1593 -19.3293 -25.3623 -31.4471 -37.8326 -46.9194 -48.2892 -49.822 -51.5144 -55.0277 -56.1149 -57.2249 -58.3575 -59.5127 -60.8532 -60.1554 -59.3663 -59.188 -59.2667 -60.4533 -59.161 -56.0772 -52.1567 -48.0539 -43.6229 -40.9614 -37.3209 -33.5315 -30.9675 -29.3527 -28.644 -28.2872 -27.8758 -27.4084 -26.9056 -26.6396 -26.3743 -26.1095 -25.8453 -25.671 -25.1997 -24.8241 -24.4553 -24.5697 -25.4337 -24.4119 -24.6042 -25.4765 -25.4969 -25.6617 -21.4817 -18.5712 -16.6937 -15.28 -14.956 -12.886 -10.6791 -8.76233 -6.80533 -4.69862 -4.08172 -3.74419 -3.40654 -3.05771 -2.62782 -2.30486 -1.98159 -1.658 -1.33409 -1.1478 -0.382433 0.250502 0.884512 1.22822 1.18021 1.97143 2.47719 3.02846 3.42081 3.68672 4.61291 5.42875 6.26775 7.33423 8.16687 10.0594 12.0756 14.0592 15.8506 17.7547 21.4081 24.9129 28.5231 32.1325 35.6934 36.8705 37.8985 38.9261 39.9534 40.8635 45.6394 50.4194 55.203 59.9897 63.5065 69.8958 71.2922 70.854 70.3285 69.9069 71.8156 73.648 75.4019 76.3046 75.8089 79.8824 81.7285 77.931 74.1703 64.6255 68.695 70.25 67.6885 65.131 56.7501 56.7407 56.7311 56.7168 56.7017 56.6873 56.3685 56.0125 55.5875 55.1218 -12.5767 -12.5767 -12.5767 -12.5767 -12.5767 -12.5765 -15.2797 -18.3316 -21.5326 -24.7947 -39.434
17.1676 17.1727 17.1784 17.1842 17.19 17.1957 17.4539 17.7146 17.9753 18.236 18.4976 18.5256 18.5536 18.5816 18.6097 18.6376 19.013 19.3783 19.7436 20.1089 20.4731 20.8918 21.3089 21.726 22.1431 22.5651 23.0679 23.5629 24.0577 24.5526 25.0437 25.6335 26.2198 26.8061 27.3924 27.9706 28.6832 29.3802 30.077 30.7738 31.4725 32.3211 33.1546 33.988 34.8206 35.6385 36.6806 37.6763 38.6721 39.6676 40.6797 41.9113 43.0953 44.2788 45.4667 46.6393 48.161 49.5643 50.9385 52.3118 53.7575 55.3978 56.9103 58.4203 60.046 61.6507 63.6565 65.5076 66.9148 68.3484 69.9224 70.3711 70.7881 71.2034 71.6171 71.9273 72.059 72.1796 72.2951 72.4103 72.5048 72.5839 72.9244 73.2606 73.5926 73.8645 73.5705 73.4453 73.3428 73.2417 72.9999 72.4386 71.6541 70.8149 69.967 68.7996 67.5051 65.7709 64.3512 62.2074 60.5721 58.957 56.6071 54.2219 50.7774 48.3397 47.3599 45.5051 42.7802 40.8369 38.9231 38.8113 38.4574 38.1076 37.6925 37.1148 36.9976 36.9026 36.833 36.783 36.7585 37.1192 37.3301 37.5142 37.7292 37.8545 38.4856 39.1583 39.8709 40.5449 41.0322 42.152 43.2707 44.3853 45.4519 46.551 48.3348 50.0632 51.9112 53.7498 55.5375 57.547 59.4908 61.4272 63.3561 64.6311 65.2938 65.9541 66.6118 67.2671 67.8939 70.6592 73.4167 76.692 80.0629 82.1323 86.0019 89.4755 92.2858 94.6315 94.7773 94.8593 94.6304 93.9275 90.6747 88.0458 87.8025 87.5574 87.3106 87.062 86.6944 86.7606 86.8266 86.8187 86.7428 86.6662 87.4876 84.0014 76.3242 68.6936 61.6153 57.7145 53.7877 49.8356 44.8147 39.6832 38.0113 36.3388 35.3744 33.9899 32.6003 19.1021 3.4436 -12.4064 -28.3998 -36.0654 -39.0104 -41.9557 -44.9016 -48.308 -51.8217 -59.3408 -59.6814 -60.1843 -60.8458 -61.6628 -65.9964 -68.5177 -71.0921 -73.7194 -76.2683 -68.9308 -62.2816 -61.5662 -61.3104 -61.4061 -62.6333 -52.8039 -49.6771 -46.7017 -39.2186 -34.2655 -31.7903 -29.343 -26.9236 -25.3257 -24.2228 -23.1204 -22.0185 -20.9045 -19.9571 -18.4413 -18.2397 -18.1109 -17.9837 -17.8647 -17.163 -16.4701 -15.786 -15.1566 -14.7687 -13.8836 -13.8108 -14.1728 -15.6565 -17.9599 -16.5524 -15.6313 -15.6329 -15.4517 -16.0771 -15.7257 -15.5418 -15.4827 -15.4248 -15.3703 -14.605 -13.8507 -13.1077 -13.3855 -14.704 -13.664 -13.7723 -13.9292 -14.1425 -14.951 -14.9483 -14.9856 -15.023 -15.0603 -15.0975 -15.2445 -15.2704 -15.223 -15.1973 -15.3022 -15.1798 -15.0023 -14.8298 -14.6623 -13.9922 -14.2881 -14.5701 -13.0072 -11.221 -9.35961 -8.49096 -7.62157 -6.7538 -6.0312 -5.30251 -1.92772 1.45324 5.22019 8.84074 12.1006 12.6837 13.293 14.164 15.0324 15.968 18.3036 20.4643 22.5763 24.4779 26.0678 28.183 30.6609 31.8806 32.9978 34.2464 34.7288 35.2543 35.786 36.3046 36.8398 37.1875 37.5261 37.873 38.2428 38.5545 38.729 39.188 39.6565 39.6786 39.4728 39.8279 40.1811 40.3491 40.3465 40.3706 40.3326 40.2936 40.2358 40.1767 40.1203 39.5606 38.0714 33.627 29.0444 15.182 17.5738 18.4015 15.2469 15.2101 16.4366 18.6649 20.7847 22.7112 24.2292 25.6629 27.9982 16.8855 12.1497 7.41755 -9.78909 -10.6592 -11.83 -12.8137 -12.0817 -11.1123 -10.1631 -9.25536 -9.26039 -9.08689 -8.92167 -9.09969 -9.38351 -9.56889
16.9481 16.9529 16.9577 16.9626 16.9674 16.9722 17.2288 17.476 17.7231 17.9703 18.2716 18.6423 18.9989 19.3554 19.712 20.0776 20.5014 20.9166 21.3318 21.7469 22.1619 22.4129 22.6631 22.9132 23.1633 23.3882 23.6257 23.8631 24.1006 24.3427 24.5844 25.1683 25.7398 26.3112 26.8826 27.4536 28.138 28.8214 29.5046 30.1877 30.8814 31.7265 32.547 33.3673 34.1876 35.0087 36.0134 37.0066 37.9996 38.9924 39.9954 41.2651 42.4732 43.681 44.8884 46.1118 47.6761 49.1287 50.5769 52.0244 53.504 55.5637 57.2953 59.0261 60.7561 62.5582 64.7906 66.7377 68.6798 70.7753 73.3442 75.0835 76.3922 77.9301 79.4747 80.7856 81.6898 82.5913 83.49 84.386 85.2033 86.2119 87.2923 88.0439 88.3909 89.0882 88.7986 88.1653 87.6601 86.5851 85.5054 84.165 82.4803 79.8599 75.6011 70.5598 68.4332 66.4296 64.7375 62.5776 59.7033 57.8813 54.6231 51.5112 48.3988 44.3105 44.0571 43.8036 43.5502 43.2967 43.0724 39.8312 36.4796 33.1115 29.7274 26.94 24.7634 22.8243 20.7922 18.7392 17.305 17.1653 17.0504 16.921 16.6306 16.3385 16.5425 16.6576 16.767 16.9644 17.1817 17.2498 17.3173 17.3842 17.4505 17.5121 17.7948 18.0512 18.3034 18.5502 18.7418 19.1862 19.6238 20.0219 20.3543 20.6899 21.3214 21.8729 22.5462 23.2967 23.9221 24.9013 26.0697 26.8666 27.4783 28.2103 29.5921 30.6641 31.5621 32.5837 33.3594 35.6995 36.9294 37.9937 38.9774 39.7822 41.3087 42.1847 43.0342 43.857 44.3609 45.3235 46.2326 46.5997 46.8421 46.724 50.0042 51.9497 54.1317 53.6174 51.8626 53.9788 55.6381 54.4472 53.2348 49.4207 51.8805 51.4568 49.3301 47.1864 45.4474 40.0342 32.6377 20.0021 5.84391 -5.44947 -6.74624 -8.04843 -9.07461 -9.63132 -10.2083 -11.7035 -15.3176 -18.943 -22.5749 -25.2036 -25.6642 -26.6225 -27.6708 -28.7347 -29.8616 -29.1274 -28.9659 -29.4689 -29.9729 -30.4603 -33.3053 -37.6159 -41.8366 -43.3953 -45.7001 -44.9851 -44.7843 -44.8428 -45.1711 -46.4814 -46.2637 -46.8339 -47.6225 -48.4111 -51.539
16.5144 16.5175 16.5207 16.5238 16.527 16.5301 16.7484 17.0113 17.2741 17.5275 17.8639 18.2153 18.5683 18.9174 19.2666 19.6318 20.0547 20.4579 20.8611 21.2643 21.6707 22.1534 22.6212 23.089 23.5567 24.0273 24.599 25.1558 25.7126 26.2693 26.8367 27.5239 28.1934 28.8629 29.5322 30.2028 31.0329 31.8449 32.6568 33.4684 34.2958 35.3199 36.3186 37.3172 38.3155 39.3106 40.4477 41.5711 42.6943 43.8172 44.8084 44.9757 45.143 45.3103 45.4776 45.6427 47.2827 48.8686 50.454 52.0389 53.6185 55.7395 57.7963 59.8524 61.908 63.9469 67.0077 69.7317 72.4477 75.1604 77.8145 82.2662 86.2911 90.3005 94.2931 100.452 100.718 100.983 101.248 101.513 101.76 104.443 106.885 109.285 111.659 113.943 118.497 122.821 125.135 127.258 131.575 133.368 134.564 135.126 135.814 136.301 137.12 136.464 135.458 134.716 134.321 133.977 133.602 132.888 131.242 128.492 127.743 126.991 125.997 124.95 123.869 119.472 113.556 103.003 92.1955 80.0856 79.9552 79.8246 79.2378 78.5259 77.816 57.105 30.8426 4.60381 -8.12375 -22.1373 -49.0543 -52.2953 -55.6713 -49.8783 -40.9967 -42.2226 -43.4607 -44.7104 -49.0244 -50.8018 -44.6362 -38.6797 -32.8789 -27.2412 -24.4182 -18.4625 -14.4417 -12.0977 -11.1413 -8.91983 -5.86845 -4.241 -3.39009 -2.72224 -2.73552 -2.20424 -1.77543 -1.48746 -1.20966 -0.841922 -1.18356 -0.792813 -0.39527 0.0665463 1.68666 1.20054 1.58317 1.93593 2.23643 2.77673 1.85269 1.77546 1.63992 1.47694 2.44173 -0.13118 -0.612807 -1.14855 -1.68563 -1.65009 -3.19115 -6.466 -8.21895 -10.3794 -13.3418 -14.118 -15.7632 -17.984 -20.078 -22.326 -22.277 -22.2776 -22.2846 -22.2926 -22.301 -22.5857 -23.1329 -23.4245 -23.844 -24.1137 -25.4807 -27.0194 -28.8639 -31.0062 -33.8561 -33.9574 -34.0519 -34.1384 -34.2249 -34.3112 -37.4714 -40.2015 -41.0752 -42.0034 -42.9231 -44.0646 -45.1161 -46.2042 -47.2591 -48.2782 -50.2807 -52.3089 -53.9592 -53.9145 -53.8746 -54.0526 -54.25 -54.3631 -54.3112 -54.2551 -54.7026 -54.711 -54.7455 -55.0444 -55.3254 -55.5691 -55.8193 -55.9215 -55.8722 -55.8199 -56.0853 -56.3564 -56.7441 -57.1767 -57.5869 -57.7194 -57.7576 -57.9282 -58.1924 -58.2492 -58.4498 -58.5869 -58.421 -58.1733 -57.8722 -58.0662 -58.0454 -58.0213 -57.9972 -58.0917 -59.4849 -60.8706 -61.2676 -60.9671 -60.687 -61.0158 -61.3447 -61.6311 -61.8907 -62.1508 -64.6097 -66.9584 -69.3653 -69.5628 -69.7723 -69.9326 -70.093 -69.9107 -69.615 -69.3203 -67.9393 -66.5748 -65.7151 -65.2333 -64.414 -61.7856 -61.2759 -59.9297 -57.9659 -57.0316 -51.5462 -49.1344 -46.7218 -44.3084 -43.9053 -43.6588 -43.6998 -43.7868 -43.8806 -43.9614 -43.5951 -42.1807 -40.5856 -38.9856 -37.4354 -37.635 -37.8387 -37.5944 -37.1621 -36.7024 -34.4508 -32.2438 -30.137 -28.2955 -26.7258 -24.9963 -23.0741 -22.424 -23.3254 -23.2954 -19.0969 -19.9805 -20.8609 -21.7359 -25.423