# vtk DataFile Version 2.0
sampleSurface
ASCII
DATASET POLYDATA
POINTS 28504 double
-0.0506574 3.25261e-19 0
-0.062995 -2.1684e-19 0.00286487
-0.0639362 -2.1684e-19 0
-0.0646056 0 0.00195427
0.0718605 0 0
0.0722397 0 0.000129588
0.0723242 0 8.8702e-05
0.0723674 0 0
-0.076776 0 0.00490487
-0.078839 0 0
-0.0819432 0 0.00117323
-0.0837712 0 0
-0.085993 2.1684e-19 0
-0.0861209 -4.33681e-19 0.00148642
-0.0866036 0 0.000171251
-0.087847 -1.0842e-19 0.0116384
-0.0881965 0 0.0112786
-0.0900038 0 0.0123483
-0.090643 -3.25261e-19 0.0118454
-0.0906976 0 0.012618
-0.0909317 -1.0842e-19 0.0126548
0.0920871 0 0.00529696
0.0944643 -4.33681e-19 0.00387292
-0.0963608 4.33681e-19 0.0080336
-0.0983472 4.33681e-19 0.00089309
0.000489984 0 0.0989926
0.000298106 0 0.0989974
9.98871e-05 0 0.0990149
0.000485974 6.23416e-19 0.0991407
9.43293e-05 3.52366e-19 0.0991717
0.0156258 5.42101e-20 0.0985799
0.0159862 0 0.0985709
0.0163227 0 0.0985881
0.0156486 2.71051e-19 0.0988618
0.0163169 0 0.0988454
0.100273 8.47033e-22 0
0.100527 0 0.000376117
-0.0996924 -4.33681e-19 0.0164862
-0.0153342 5.42101e-20 0.0999685
-0.0157017 0 0.100002
-0.0153491 -5.96311e-19 0.100255
-0.0160629 -5.42101e-20 0.100255
-0.0159354 5.42101e-20 0.100286
0.0223804 0 0.099047
0.101881 8.47033e-22 0
0.101881 8.47033e-22 0.000192208
0.00827793 8.67362e-19 0.102722
-0.00796103 1.73472e-18 0.103582
0.0306339 0 0.0993579
0.0310997 1.0842e-19 0.0993793
-0.104275 -1.0842e-19 0
0.0306546 0 0.0997274
0.0318162 1.0842e-19 0.0994922
0.0315991 -7.58942e-19 0.099709
-0.104638 1.0842e-19 8.05868e-05
-0.105286 0 0
0.0238304 -1.73472e-18 0.102593
-0.105295 0 0.00275104
-0.104379 0 0.0178795
-0.106012 0 0
-0.104494 0 0.0179005
-0.106059 5.42101e-19 0.000135996
-0.104685 0 0.0179984
-0.105106 0 0.0181935
-0.105158 0 0.0181645
0.106335 0 0.00903021
-0.105483 1.4456e-20 0.0163085
0.106366 -1.35525e-20 0.00899459
0.10656 1.35525e-20 0.00909066
0.106652 0 0.00904642
0.106666 0 0.00912853
0.106703 0 0.00913178
0.0389247 0 0.101918
0.00012995 -3.95282e-21 0.110474
0.0163414 1.31761e-21 0.110172
-0.0191416 0 0.109734
-0.0198114 0 0.111366
-0.0196586 1.35525e-20 0.111396
-0.0197683 0 0.111404
-0.0198283 0 0.11142
-0.0197388 -1.35525e-20 0.111445
-0.0196539 0 0.111508
-0.0197831 0 0.111488
-0.0198447 0 0.111498
0.113578 0 0.00666074
0.0322092 0 0.109262
0.0511405 0 0.102094
0.0507775 -4.33681e-19 0.102531
-0.114165 4.33681e-19 0.00989877
-0.114708 0 0.0016754
0.114835 -4.33681e-19 0.000849152
0.0527008 -2.1684e-19 0.102434
0.0539343 0 0.102711
0.0510091 6.50521e-19 0.104226
0.0542576 1.0842e-19 0.1029
0.00866346 8.67362e-19 0.116531
-0.00813442 0 0.116649
0.0533187 3.25261e-19 0.104414
0.117703 -4.33681e-19 0.0134268
0.0243545 8.67362e-19 0.116163
-0.116704 0 0.0232834
-0.119064 0 0.0193726
0.0610898 -8.67362e-19 0.104043
0.0416551 8.67362e-19 0.113803
0.121295 0 0
0.121321 0 6.14248e-06
0.12137 6.77626e-21 0
0.121373 2.25875e-21 0.00252027
0.121429 0 0
-0.122507 0 0
-0.122533 6.50521e-19 7.07844e-05
-0.122882 0 0
-0.122883 0 0.00398503
0.064079 0 0.105101
0.12225 0 0.0146332
0.122283 0 0.0146366
0.122337 0 0.0146642
-0.123218 0 0
-0.123225 0 8.56715e-05
0.122422 0 0.0146785
0.064445 1.0842e-19 0.105292
0.123128 -4.51751e-21 0.0125447
0.0651888 0 0.105352
0.00149266 0 0.124291
0.0663232 -1.0842e-19 0.105687
0.0663364 -1.0842e-19 0.105881
-0.0199799 -1.35525e-20 0.123498
-0.0197045 5.96311e-19 0.123562
-0.0198916 0 0.123555
-0.0198223 0 0.123652
-0.0200161 1.35525e-20 0.123621
-0.0198901 0 0.123736
-0.0196768 2.43945e-19 0.123771
0.0166349 0 0.124281
-0.0199415 1.35525e-20 0.123815
0.064818 -3.61401e-20 0.107444
-0.12525 -6.77626e-21 0.0142145
0.0573201 8.67362e-19 0.114086
0.0323877 -2.71051e-20 0.123612
-0.125881 6.77626e-21 0.0277784
-0.125952 0 0.0278224
-0.126005 6.77626e-21 0.0278346
0.072535 -4.33681e-19 0.107441
-0.127356 -6.77626e-21 0.0249919
0.130261 4.33681e-19 0.00908994
0.129659 0 0.0169822
0.130817 4.33681e-19 0.00162317
-0.131264 0 0.00211156
0.0484574 -5.42101e-20 0.122385
-0.00760337 -4.33681e-19 0.131724
0.00919562 8.67362e-19 0.13163
-0.132124 -4.33681e-19 0.0100559
0.0244946 0 0.131479
0.0778716 0 0.109298
0.0779326 3.25261e-19 0.109494
-0.133149 8.67362e-19 0.0222073
0.0788766 -1.0842e-19 0.109597
-0.132267 4.33681e-19 0.0303529
0.0801537 0 0.110089
0.0801098 -4.33681e-19 0.110287
-0.0147993 0 0.135518
0.071423 4.33681e-19 0.116289
0.135315 0 0.0200291
0.135373 0 0.020051
0.0402991 1.73472e-18 0.130822
0.135459 6.77626e-21 0.0200798
0.0780214 0 0.11258
-0.0141346 0 0.13704
-0.0141608 -1.69407e-21 0.137038
-0.0141314 0 0.13707
-0.0127443 1.69407e-21 0.137217
0.136828 1.807e-21 0.016803
0.138728 -6.77626e-21 8.05679e-06
0.138767 -6.77626e-21 0
0.138808 0 1.00997e-05
0.138767 -3.38813e-21 0.00387315
0.0639079 -2.71051e-20 0.123344
0.00285256 0 0.138951
-0.139189 0 0
-0.139193 -2.71051e-20 4.19365e-05
-0.139353 0 0
-0.139356 -2.71051e-20 0.00449669
-0.139508 0 0
-0.139509 -2.71051e-20 4.45033e-05
-0.0736461 0 0.1185
-0.0736765 3.38813e-21 0.118505
-0.0736512 -2.71051e-19 0.11856
-0.0737242 3.38813e-21 0.118532
0.0170377 9.03502e-21 0.139454
-0.140488 -2.25875e-21 0.0169861
-0.137457 0 0.0340342
-0.137476 0 0.0340531
-0.137521 6.77626e-21 0.0340709
0.0560931 0 0.130714
-0.0630244 0 0.127609
-0.0630736 3.38813e-21 0.127587
-0.0630949 3.38813e-21 0.127604
-0.0630162 3.38813e-21 0.127654
-0.0630607 3.38813e-21 0.127642
-0.0631099 -5.6243e-19 0.127639
-0.0767264 -3.04932e-20 0.120268
-0.139458 -3.16226e-21 0.0306312
0.0323077 9.03502e-21 0.139267
-0.074725 3.38813e-21 0.122842
0.0895517 -8.67362e-19 0.113884
0.0855638 -8.67362e-19 0.118219
0.0481294 0 0.138624
0.14715 -4.33681e-19 0.00208459
0.146837 -4.33681e-19 0.0106817
-0.147274 4.33681e-19 0.0022809
-0.00627729 -4.33681e-19 0.147562
0.0789817 0 0.124875
-0.147614 0 0.0109443
-0.0700821 0 0.131069
0.00838968 -4.33681e-19 0.148422
0.147159 -1.73472e-18 0.0247926
0.0244717 0 0.147381
-0.147799 1.73472e-18 0.0243967
0.0717028 0 0.131591
0.151094 1.69407e-21 0
0.151094 -1.69407e-21 0.00430549
-0.057233 6.77626e-21 0.140466
-0.0572776 0 0.140507
-0.0572257 -6.77626e-21 0.140553
-0.0573568 -6.77626e-21 0.140503
-0.057305 0 0.140554
-0.0572765 0 0.140585
-0.0573563 7.65718e-19 0.140588
-0.0571969 6.77626e-21 0.14067
0.150513 0 0.0207855
0.0400398 -1.73472e-18 0.146987
0.0639055 -2.71051e-20 0.139001
-0.148229 -1.73472e-18 0.0394773
-0.0629095 -1.01644e-20 0.140043
0.0993584 0 0.118252
0.0993652 -5.42101e-19 0.118304
-0.0850603 4.33681e-19 0.129269
0.0996556 0 0.11839
0.0998498 2.71051e-20 0.118487
0.0998096 0 0.118542
-0.155096 0 0
-0.155097 0 2.49427e-05
0.155125 -1.69407e-21 3.59083e-06
-0.155183 0 0
0.155125 6.45439e-19 0.00444521
-0.155183 0 0.00465495
-0.155267 0 0
-0.155268 0 2.53063e-05
-0.00653262 0 0.155137
-0.00627198 0 0.155211
0.152881 0 0.0285262
-0.0064328 0 0.155391
-0.00627521 2.71051e-20 0.155524
-0.151629 0 0.0352588
-0.00633319 0 0.155633
0.155774 3.38813e-21 0.00813482
0.0977074 1.807e-20 0.121858
0.0170078 -4.51751e-21 0.155378
-0.155725 -6.77626e-21 0.0173219
0.0558552 8.67362e-19 0.146685
0.0881519 -4.33681e-19 0.131261
0.157555 -4.51751e-22 0.0159563
0.0321629 4.51751e-21 0.155317
0.155912 -1.69407e-21 0.0299959
-0.0548768 0 0.149218
0.156403 -8.47033e-22 0.0290841
-0.00451089 0 0.159143
-0.0785781 2.25875e-21 0.138603
-0.0552119 5.42101e-20 0.149932
-0.157017 -1.12938e-21 0.0302011
-0.0559665 -3.79471e-19 0.14991
0.157935 -1.50584e-21 0.0261526
-0.0554549 0 0.150228
-0.154087 0 0.0442871
-0.0553514 2.71051e-19 0.150814
-0.0560577 3.79471e-19 0.150709
-0.00370518 -2.71051e-20 0.160771
0.104857 4.33681e-19 0.121949
-0.00355413 6.77626e-20 0.160801
-0.00365117 1.35525e-20 0.1609
0.0790895 0 0.140173
-0.00370256 0 0.160946
-0.00355014 0 0.160964
-0.00374372 0 0.160985
0.0478442 -1.35525e-20 0.154893
-0.0701737 0 0.146593
-0.162958 0 0.00233059
-0.156524 0 0.0457885
-0.156532 0 0.0457937
0.163095 4.33681e-19 0.002272
-0.163155 0 0.0111415
-0.0539692 0 0.154439
0.0716371 0 0.147154
0.16372 -8.67362e-19 0.0109135
-0.0538443 2.71051e-20 0.155004
-0.15858 2.11758e-22 0.0426538
-0.0535845 5.42101e-20 0.155301
-0.0537542 2.71051e-20 0.155433
0.00797658 -4.33681e-19 0.164313
-0.0540687 -2.71051e-20 0.155367
-0.0534733 0 0.155608
-0.0539929 -2.71051e-20 0.155603
-0.0537653 2.71051e-20 0.155834
-0.053394 0 0.156002
-0.0541524 -2.98156e-19 0.15585
0.0244705 -4.33681e-19 0.163327
0.16221 8.67362e-19 0.0319512
-0.098625 0 0.132795
-0.0985096 0 0.132934
-0.163834 -4.33681e-19 0.0243829
0.164041 -8.67362e-19 0.0234822
-0.0989761 0 0.133011
-0.0986386 0 0.133385
-0.0991553 -2.71051e-20 0.133124
0.110561 0 0.123997
-0.0990824 -4.60786e-19 0.133394
0.110523 -5.42101e-20 0.1241
0.110851 0 0.124143
0.111287 0 0.124399
0.111236 1.0842e-19 0.124461
0.0637087 9.03502e-21 0.154625
0.102865 4.33681e-19 0.132674
0.10895 0 0.127735
0.0398963 8.67362e-19 0.163197
-0.164308 -8.67362e-19 0.0382154
0.0946646 -5.42101e-20 0.140304
-0.162327 -4.33681e-19 0.0480596
-0.0884744 4.33681e-19 0.144452
-9.71046e-06 4.23516e-22 0.169664
0.000166543 0 0.170088
0.000408699 0 0.170103
-0.17072 0 0
-0.170773 -6.77626e-21 0
-0.170825 -6.77626e-21 1.56697e-05
-0.170773 -4.51751e-21 0.00468902
0.166965 0 0.0361826
0.166999 -6.77626e-21 0.0362002
0.170934 -6.77626e-21 1.58986e-05
0.167055 0 0.0362229
0.170989 6.77626e-21 0
0.171045 0 0
0.17099 0 0.004644
0.0872301 0 0.147557
0.017467 -4.51751e-21 0.170707
0.000835171 0 0.17191
-0.171009 0 0.0176594
0.0556436 -8.67362e-19 0.162903
0.169303 0 0.0322672
0.169333 5.29396e-23 0.0321454
0.169317 5.29396e-23 0.0322427
0.169429 -2.11758e-21 0.0322323
0.171598 -2.25875e-21 0.0176964
-0.0795497 -1.35525e-20 0.15453
0.170942 2.64698e-23 0.0332669
0.0321247 -9.03502e-21 0.171253
-0.0577178 0 0.164416
-0.166326 0 0.0526363
-0.166351 0 0.0526567
-0.171769 1.05879e-22 0.0315344
0.0793992 -6.77626e-21 0.155604
-0.169068 1.69407e-21 0.0488654
-0.169064 0 0.0488981
0.120034 0 0.129853
-0.0713441 8.67362e-19 0.162074
0.11611 8.67362e-19 0.134549
0.047662 -1.35525e-20 0.17122
0.0714249 8.67362e-19 0.162922
[...]
POINT_DATA 28504
FIELD attributes 1
p 1 28504 float
6.89857 60.0108 61.0316 60.1001 -97.9808 -95.0786 -95.0829 -95.1057 58.9067 59.9497
59.1942 55.3466 58.706 58.1411 58.6677 52.3014 52.3854 49.1872 51.5605 50.6766
50.675 -74.2242 -95.1338 56.4605 59.1717 30.7359 30.7172 30.6719 30.7351 30.6722
32.646 32.692 32.6846 32.6484 32.6851 -72.1642 -71.6352 47.22 25.4209 25.2833
25.4198 25.0674 25.1016 33.0713 -68.8524 -68.7215 32.0861 29.3668 33.6143 33.7237
57.964 33.6131 33.7027 33.6997 57.9429 56.91 33.291 56.7263 49.8881 57.555
49.8866 57.5547 49.367 50.0826 50.074 -59.8741 53.057 -59.9001 -59.4913 -59.0463
-58.9936 -58.9981 34.0544 28.7569 31.3394 21.3145 20.646 20.6862 20.6285 20.6305
20.6336 20.6816 20.585 20.5726 -35.8917 32.3346 34.2651 34.261 54.58 56.4994
-46.4403 35.0479 35.2474 33.7442 35.2162 29.7691 27.296 34.8935 -33.2405 30.6667
53.5748 57.5366 35.2257 31.31 -28.9951 -28.9929 -28.9289 -27.1541 -28.7586 58.1838
58.1837 57.9934 57.9102 37.1194 -22.9219 -22.9211 -22.9226 58.2956 58.2956 -22.7021
37.1022 -22.1403 37.568 26.951 38.3023 38.2592 12.2928 12.4168 12.2617 12.2481
12.2579 11.9702 12.3626 29.1457 11.8791 37.9742 58.9632 36.583 29.8255 55.8722
55.8088 55.8958 40.4307 58.156 -7.55537 -13.5409 -12.0129 59.9665 32.2306 22.8567
27.857 60.7748 28.418 41.1891 41.1611 62.8497 40.9961 57.5645 41.8449 41.7936
9.13305 41.0081 -10.891 -10.9435 29.0805 -10.8388 41.7029 8.76184 8.75222 8.75308
9.80646 -4.66388 -3.82132 -3.81661 -3.74429 -2.42352 35.9912 21.7208 61.6893 61.6893
61.6373 61.9021 61.7485 61.7485 28.9034 28.8803 28.8936 28.8782 26.5565 62.1966
60.6927 60.6679 60.7239 31.8775 30.4828 30.502 30.4997 30.5456 30.5155 30.4956
28.6177 62.4651 26.7306 28.8014 42.2521 42.8995 27.5332 4.32867 6.43671 63.4438
10.797 38.3879 63.6086 30.7033 24.564 -6.79058 25.3294 61.3917 34.271 4.89498
5.53361 30.661 30.6132 30.646 30.5812 30.5614 30.6109 30.5571 30.8218 3.30104
24.1878 29.2004 65.1377 30.0294 45.5294 45.5209 29.2324 45.6136 45.8533 45.8279
64.0078 64.0078 7.72359 63.9792 8.12559 64.0296 64.0158 64.0158 0.959244 0.771679
-5.69069 0.643385 0.59241 67.7122 0.654808 7.80637 43.2088 21.9852 64.2675 24.8873
35.4943 7.50251 22.0837 -4.79167 32.2654 -3.5141 -6.74317 28.5255 30.548 67.0862
30.0485 0.564886 29.9919 65.62 30.2992 29.8677 -9.95755 47.7161 -9.7804 -10.066
30.4501 -10.3315 -9.84729 -10.4065 21.5297 27.6158 64.5758 66.3415 66.3424 11.083
64.5196 31.126 25.6182 10.9061 30.2285 68.0939 30.3064 30.178 17.4361 30.0362
29.6486 29.8215 30.3125 30.7456 29.8963 20.2991 -3.38288 26.8158 26.8158 67.5709
7.78362 26.7987 26.7753 26.7421 50.0347 26.749 50.0046 49.8106 50.2248 50.2111
21.8863 45.2058 49.246 18.5593 71.3978 34.1941 67.1645 26.4749 -2.98751 -2.63014
-2.41029 65.4168 65.4071 65.4267 65.4732 -6.31506 -6.36522 14.7447 -6.35192 14.7355
14.7982 14.7545 27.0135 13.7632 -2.10969 67.1096 18.4601 0.965438 1.08931 1.01096
1.06231 12.7154 25.846 0.763383 15.4994 27.6008 72.0217 72.0567 70.217 22.3421
73.466 73.4688 54.0209 25.2962 52.319 15.0519 18.3825 66.2656 25.1853 18.4468
24.7956 39.7584 24.7993 24.7956 66.5734 24.7863 24.7864 18.785 26.9696 26.1812
29.0511 25.5512 24.9743 4.88018 25.1156 25.2984 69.8698 25.4579 13.4773 24.7308
24.5053 -10.7048 11.4976 23.5253 15.5524 71.7401 11.3158 24.4096 23.3886 21.6343
18.522 -1.28983 79.4225 66.4067 66.4005 66.4076 66.4503 20.308 20.308 20.2829
20.4868 20.3478 20.3478 48.3881 48.3596 68.1498 11.8866 18.2017 47.2644 16.2368
80.8411 71.0721 43.5277 71.8215 46.6797 46.6819 21.371 24.2697 2.92601 2.93114
2.90997 32.3983 2.91659 2.90113 16.4359 23.5543 10.2279 9.7775 25.4454 -9.31188
-9.33928 -9.29646 22.3824 13.4468 19.498 77.4153 -1.8727 10.6023 1.36211 1.55915
17.6491 1.34898 66.5488 1.25967 1.4554 1.19671 66.4276 22.2021 16.1144 83.8969
83.88 22.588 83.9369 21.2321 69.7661 17.1185 83.7436 17.7222 8.73854 11.8008
76.0826 14.5192 41.5405 19.6606 9.57944 9.25689 38.6292 12.5306 23.1971 23.1968
29.5858 23.1576 23.0988 23.1163 23.1161 21.4295 22.2624 66.4942 66.4907 66.4935
66.3175 22.9011 22.9011 -2.44832 80.7882 22.8659 -2.45193 23.1749 -2.27055 22.9196
22.9196 -2.48709 -2.4198 -2.42669 67.9034 67.9064 -2.3198 -2.41616 -7.77711 13.3877
9.98391 21.5148 71.0622 18.5756 20.8731 14.6212 7.96105 72.834 12.4588 15.6963
7.73557 -0.918321 88.607 19.5283 15.976 11.904 11.3055 11.305 11.2711 11.3058
78.881 8.20157 40.3405 40.3294 89.7299 9.56128 16.8126 6.92223 15.0338 66.4389
65.7955 23.6168 39.2475 35.5177 24.4086 26.315 69.6515 21.2746 38.7673 38.7663
4.2228 22.1101 22.0559 -9.03542 21.2969 -9.0849 -9.05488 85.8266 11.2525 12.9196
13.6743 76.0144 6.06031 -3.14784 17.4546 20.9633 19.4775 14.1349 8.53757 95.8156
95.8119 95.9063 -7.30282 -7.24143 -7.15769 11.0738 17.8145 11.2948 11.2771 16.3478
-7.31593 11.387 -7.23537 11.2341 11.3046 -7.07181 10.9756 66.0419 65.9188 94.5219
82.8727 4.71634 23.5272 23.5272 7.49751 23.4866 23.9716 23.528 23.528 13.1947
5.47182 67.6862 23.3122 -9.91072 10.4869 10.3797 15.8511 72.1114 15.1937 19.2507
9.56938 2.94661 9.78324 11.4502 37.6287 32.9591 10.4681 89.66 26.301 11.3622
3.57423 78.4915 12.6328 20.2379 20.1434 -11.9135 -11.9135 10.9359 -11.9848 -11.9711
-11.9685 14.8339 12.4769 20.9253 20.9253 8.98894 20.8828 20.884 20.8563 20.8517
18.5204 -3.55233 23.4382 18.3391 24.575 103.123 23.0344 85.7939 16.7366 16.7019
5.16725 -8.07646 14.5606 4.61904 11.6141 73.8733 101.817 18.7189 13.8495 13.4829
16.4225 37.7627 37.7609 6.25463 33.3099 11.5971 6.29466 3.8675 81.2095 37.4006
95.1796 25.7107 19.9091 14.0567 19.8952 19.895 19.8922 19.8758 22.2941 22.2941
19.8695 22.2525 22.7871 22.2683 22.2683 65.7198 9.69655 37.0408 37.0428 4.05325
-14.8702 65.2477 22.7287 15.9037 22.5148 -22.1761 -22.9253 10.556 -23.4913 20.741
-23.0544 70.7778 -22.3289 17.5299 19.642 64.8713 107.902 107.855 107.99 89.8651
-4.69359 4.00298 1.38935 76.1724 5.65212 2.62626 1.73527 1.88685 2.45157 19.0165
105.838 14.8616 0.760017 2.40126 -0.270277 18.9945 16.2963 5.07145 15.7355 12.7861
18.8418 -36.7722 -36.7115 -37.9094 12.3697 -37.1152 -35.794 -36.8055 11.6534 17.8688
21.1224 7.54837 22.1761 84.0663 2.82327 99.0044 18.5177 6.24959 21.1225 -16.0317
-16.0313 6.9072 16.2029 -16.1167 64.6408 -16.059 32.5591 -16.0574 37.2865 28.615
70.8905 9.20294 17.8291 20.0889 18.2816 11.2201 24.7607 -8.23855 112.642 16.0791
23.2112 4.32725 92.8666 21.546 78.6573 12.1901 2.88779 64.0889 13.5049 18.4768
19.4289 19.4289 19.3969 21.5964 19.9775 13.7687 19.3873 112.187 10.8123 20.6853
68.188 19.9145 21.3242 6.30466 -6.54005 -4.5413 10.4742 -0.927747 86.5595 3.54876
10.434 -2.82731 -1.48485 -21.2131 6.61466 -22.1311 -7.02064 103.787 -21.8625 -22.8655
73.6153 -0.988098 -22.1907 -22.6947 16.5275 -13.4466 -21.8825 -17.2112 16.5675 7.58493
38.9892 38.9906 35.7491 38.9582 11.0916 17.1319 17.1337 17.1163 17.1138 17.103
17.103 31.5565 39.001 38.9939 20.8681 20.5327 29.2102 120.485 120.489 120.492
120.634 120.632 3.90595 -9.01563 96.661 80.5827 9.72294 15.3326 26.9444 12.8076
13.9289 4.218 117.281 19.4945 26.0557 19.8048 12.5041 3.6047 3.77572 3.60327
3.60871 3.72407 88.9609 3.72578 0.472722 7.74585 31.2921 9.10315 9.06978 -24.4296
-24.4336 25.0257 107.151 -24.5692 -24.5982 -24.5948 14.2241 17.4572 126.014 12.0462
20.7743 62.9272 -16.4406 63.7535 17.4459 6.88275 36.6926 23.3235 35.4159 15.9736
40.6823 82.0984 19.1408 4.73909 5.8412 98.7471 13.0178 33.8813 16.0351 15.3813
4.74038 13.7932 -18.8113 -29.5627 17.039 69.7052 32.2323 21.1568 -11.3982 -9.11208
-3.81907 129.723 129.681 129.774 123.704 -11.709 12.0098 30.8173 -4.65113 29.6516
-0.900456 10.4514 7.15048 -0.172057 -1.98485 90.5814 76.9506 -2.01075 128.224 128.249
10.2899 12.5238 19.8206 21.5978 111.934 -28.8721 -28.8717 -28.8892 28.7104 -28.85
9.10544 42.6161 19.5584 133.623 -24.7343 40.7173 46.6701 46.6633 6.31932 26.2098
83.2857 46.767 14.14 46.9017 46.8962 133.624 39.4304 14.0357 13.3299 1.72307
14.0373 17.5316 101.196 25.8293 -17.5174 127.379 38.5075 14.4703 12.575 31.3907
24.9049 12.5371 37.4027 61.5573 61.5546 61.9052 14.1861 14.1649 14.1687 14.6471
4.7423 16.1006 7.78847 10.8742 35.1062 76.2048 9.64958 92.1198 9.64753 9.83519
20.969 38.9347 -9.32911 39.3552 6.63493 33.9478 50.7896 16.3635 64.7973 35.0919
35.1314 23.1264 139.107 139.085 139.148 -27.8367 116.038 9.92561 10.0574 10.053
9.21948 32.7169 15.9686 42.3115 135.065 12.4997 -24.4777 11.714 84.2532 -25.6051
13.4383 13.4543 21.5379 -5.05052 30.8014 6.49464 71.9022 13.5138 14.7127 2.28677
45.0223 31.5245 103.762 13.5043 13.5083 9.27748 12.7611 48.5291 48.5241 48.4799
-19.3468 48.4321 48.4262 13.2372 43.3629 13.0276 45.8134 29.1517 52.3376 3.75726
126.609 41.4058 19.4491 19.1319 78.5028 92.4743 0.564493 12.0888 12.0989 9.83177
-13.7687 144.193 27.7814 12.0847 11.9239 39.7908 -29.6495 44.9834 -29.6807 -29.6678
12.2058 12.2428 16.2744 16.6001 2.5087 -24.8543 16.6504 8.21744 16.3632 -26.9289
37.4466 146.243 16.543 15.7219 -26.3109 -26.3092 16.0484 56.6606 16.1308 56.8772
56.9377 60.1821 25.1953 15.8296 9.94074 60.5607 116.788 16.3316 85.2847 60.807
16.0418 12.3776 -9.34989 28.2844 12.7868 5.16176 6.67177 35.1282 106.202 142.5
-21.369 19.6925 24.7587 -25.4921 61.1607 42.929 44.4335 64.9175 34.6881 12.429
66.1233 45.6758 4.03222 11.379 15.2108 129.799 -4.59563 11.7915 11.737 45.4577
11.4683 11.0883 -17.7117 42.5405 68.5905 7.33205 33.7344 -31.3306 11.3609 98.43
22.648 22.938 22.181 22.4777 22.7268 22.537 22.936 45 22.8741 22.8134
1.30262 31.8256 119.105 24.4573 7.2708 151.162 151.152 151.202 -26.7476 73.1245
9.99325 42.0396 9.89456 72.6749 24.5647 -13.8989 9.59808 0.723995 9.46565 9.47746
144.974 5.81456 41.6528 107.158 -23.3631 1.28583 47.6902 84.9053 85.0496 62.0513
85.1411 85.0255 84.9455 84.9677 85.1889 49.1475 49.1223 84.617 30.3989 49.437
40.7587 49.2614 49.2355 13.6772 4.39738 130.421 -8.81597 58.7016 58.6991 154.326
58.92 49.0516 -21.9835 -35.4932 8.99045 -35.5332 36.0363 8.97298 -35.543 8.96949
9.08066 40.0741 6.31557 8.2807 52.4673 27.158 -30.2186 60.9237 27.8231 8.87503
27.7409 -30.4646 27.2 1.86464 -30.4822 26.6514 26.9922 118.238 51.4663 27.6587
27.1369 6.50215 -17.4074 26.6767 85.7465 18.2332 27.3587 158.201 158.202 158.141
3.37635 158.317 158.314 27.1372 38.7086 -4.1099 52.4494 50.622 54.5068 -23.1351
65.9126 -38.3408 5.23872 106.889 -0.39013 5.01108 48.6546 155.309 98.6534 98.4298
144.968 98.8555 98.6171 98.5332 98.2135 60.3829 47.8117 -12.6643 6.04984 30.8993
3.73317 6.09276 60.4977 97.2854 130.815 -0.203671 5.83166 -34.5851 31.2903 -34.5684
162.801 5.65467 31.7689 31.5739 5.65783 31.2166 64.1 64.1053 -0.2225 47.0021
64.2725 64.7075 64.821 30.7098 31.5171 30.9737 31.2606 74.6874 63.103 31.0409
31.4653 -31.4475 76.7099 31.4251 -29.1446 2.13538 -21.627 117.696 -20.6808 13.2513
62.2653 5.45427 57.2167 -17.1826 59.4216 -10.1897 5.58118 48.593 57.5109 -23.1591
5.4441 159.193 73.8447 33.8389 105.837 56.4043 -0.0246664 4.20654 91.4216 91.6218
34.324 91.5815 91.5467 91.4271 91.2255 33.9352 33.6141 34.1751 33.5104 33.3816
167.8 167.802 167.588 144.741 168.074 168.068 -17.1169 54.8297 -21.7132 60.4498
1.6401 21.3591 49.1538 -29.2636 4.85654 3.36871 165.889 94.5822 -2.2756 130.702
-26.1365 -23.8934 76.1349 77.8546 78.0569 33.1278 -31.8531 172.69 32.9781 33.5473
33.0601 33.2423 77.5165 77.8884 -18.232 33.1088 77.1127 2.04334 33.4009 33.3788
-15.6915 116.552 33.4381 78.3921 4.84134 65.8416 2.7733 78.7487 79.0586 2.77907
86.7196 172.917 73.4324 42.2007 2.74229 2.64869 42.8655 -1.8176 2.65096 172.724
-4.21899 84.8749 84.773 84.8907 84.8082 84.8024 84.7384 162.465 -18.6504 66.3782
104.321 0.399772 62.9846 -9.45142 56.9603 -22.5721 2.95112 -16.7206 -23.7463 -23.7742
-20.2478 -24.0972 -23.4479 -25.1885 -25.0455 -19.3581 -30.6016 144.308 -22.5602 -21.6762
-13.1595 15.7207 -2.64826 173.835 173.84 2.58689 173.684 55.4659 95.9108 173.897
173.897 55.5511 -0.980687 1.72749 1.72295 1.70212 60.4277 -25.9824 127.959 51.3602
73.7178 42.4042 56.9091 40.6862 41.9458 -63.2209 42.0912 74.4592 41.8891 1.28515
41.1431 165.3 -17.5991 -10.8847 83.0722 40.2484 2.25097 -20.956 1.39616 40.5336
113.503 75.8116 -31.4339 -37.587 -37.5463 -36.9939 -35.7094 38.712 -35.7803 24.2638
-3.09153 30.0644 39.0045 38.7412 38.5819 38.5295 38.4982 67.3345 67.1493 67.2291
33.5447 67.1909 38.8021 7.40321 7.38706 7.58896 7.80628 34.5892 7.40519 38.4329
8.04272 8.05192 13.4387 19.8897 17.575 15.0878 13.4849 17.3654 30.7315 38.9521
-11.8218 71.9677 -17.0166 152.795 65.3559 1.66362 15.9221 102.683 38.2098 22.5769
20.2997 36.8829 0.7496 38.0686 0.753894 37.4093 37.4989 0.771961 0.718777 -14.7699
-14.7656 -3.28581 36.9796 0.723233 37.2818 -16.1746 175.131 36.7519 0.507086 7.05276
60.2087 -28.4096 -28.4056 -28.3845 37.2113 17.7271 -2.99494 138.648 -9.87244 80.153
79.8548 79.5315 58.6268 2.44283 1.74847 1.14863 -4.39932 11.3122 78.5446 78.6314
78.5649 -24.2713 78.5671 78.8641 124.693 19.416 66.1935 37.6566 -20.6926 -19.171
15.579 176.296 176.217 176.309 -3.69905 49.0603 -13.8712 38.2507 20.7664 38.3453
50.1813 49.7997 38.0535 50.0125 50.3068 50.4488 49.8379 73.3372 84.2063 2.38023
27.7665 38.6892 113.777 49.741 -24.9209 38.0796 49.256 38.6642 48.5769 30.8433
17.3249 28.6539 38.9892 -0.633834 27.1941 48.1396 53.7146 26.5865 71.0473 49.051
32.8993 23.9208 161.943 170.742 -19.1674 -2.12306 53.7649 -19.1511 -19.2386 48.0937
28.6618 27.5363 -19.1155 -19.1905 -19.1892 -2.18065 177.173 2.8774 48.9367 9.85156
-18.9089 9.85415 4.20822 9.85207 9.85238 -9.53414 147.541 42.812 9.85708 32.2754
9.85704 9.85688 9.85721 9.85665 9.85727 -2.52482 55.868 68.1535 -19.5893 -19.5789
-19.5088 31.0455 -3.03245 5.40759 32.4362 32.4328 177.637 32.3351 33.5544 32.3065
11.2459 133.698 -17.4457 2.27078 45.0331 44.6381 0.668296 0.670511 45.2367 0.682591
0.672952 -17.8049 45.0193 0.674152 45.1559 44.5167 75.1764 43.3698 43.3131 75.4647
120.943 75.1215 -16.4865 15.8564 74.7522 74.0028 74.8365 -16.408 74.6999 43.2592
74.8738 43.9625 43.1706 -18.3358 43.1831 42.423 13.9409 75.1011 -2.77302 44.1667
43.8694 43.0539 -17.407 43.6238 14.7586 43.3241 -17.4618 -17.4607 -17.392 43.405
-17.4602 59.269 58.2219 2.48777 0.967113 -10.6599 58.9402 -10.2065 178.883 178.882
178.721 58.5262 178.923 178.92 2.46013 57.7234 58.0849 56.9491 58.3732 50.3254
9.7989 27.5532 71.3987 57.6377 167.613 26.0268 26.7119 58.2196 44.1118 4.81277
47.6132 -22.0248 2.94869 96.4774 155.608 -0.788046 174.782 10.5604 -1.40492 52.1073
-17.233 -17.2327 -12.9368 72.0235 51.1089 -1.23479 142.945 52.1312 53.0269 52.7114
56.2194 55.9485 55.9252 55.9465 36.3395 9.88195 55.6392 -9.50352 129.37 55.8308
51.7859 55.8948 51.9232 54.3617 23.4512 -5.82478 9.59413 -10.2651 65.3819 -5.78156
65.2899 180.15 14.429 55.391 65.2897 55.1777 36.4499 35.8717 55.5569 -11.1229
36.3688 65.3244 55.4492 36.8285 37.0227 64.8044 35.9731 -21.3785 -5.87949 8.99004
55.1384 64.7159 -14.8445 116.831 55.433 9.54129 53.5859 64.4518 3.23416 9.54121
64.2495 -7.23106 -14.4159 -14.3458 -14.3613 19.9287 -19.8922 -14.3448 19.8633 43.1332
9.52301 19.8413 9.52264 1.71691 -4.11752 1.64777 64.9191 1.66347 1.6714 1.65101
40.3766 1.72984 1.6933 1.68812 54.9108 69.1638 83.0892 -6.44726 22.8906 32.7809
9.52615 9.52652 69.1752 9.52267 9.52154 9.51993 9.51993 69.3207 15.97 68.5687
106.243 68.1886 57.1057 56.9738 1.59755 57.2685 57.3217 55.2139 -12.8157 183.996
-12.8225 184.007 57.3934 57.2755 57.1672 22.0306 57.3448 9.40306 -10.2811 2.83969
9.41191 58.9591 173.299 -22.1912 58.8261 58.8355 3.20569 162.25 -20.5765 58.4629
58.5357 19.4703 38.5122 150.455 30.0972 184.849 58.274 58.795 58.1647 58.3392
-1.65908 -0.63832 -8.52697 136.967 31.0372 30.702 29.6434 13.6094 30.5458 181.391
29.8693 62.7023 29.8031 9.42814 -0.0811497 66.4752 -6.05624 44.2601 49.4422 35.2418
9.05382 124.225 -18.7076 9.13638 24.0911 60.0123 2.3064 72.1269 -24.6528 -12.6886
-7.59661 61.3944 61.1558 24.4816 -2.65012 9.26412 61.6612 112.648 61.6243 36.5398
-5.1505 -5.12617 -5.13718 61.8056 61.6396 -4.84154 61.5312 -4.33151 61.9742 9.11857
-10.4499 188.693 5.90152 50.2876 29.6047 101.531 61.0923 61.2006 61.5187 61.2499
-10.0999 61.4243 13.511 -9.8996 61.5489 61.4761 2.70144 2.69082 2.68713 2.68799
-9.43681 184.263 8.9106 -18.4661 41.5751 8.91064 10.9197 -23.7619 10.8826 -23.7722
1.15981 10.8887 8.8848 -9.3751 -3.63177 157.94 8.85524 171.272 8.85441 8.91009
46.2265 93.2172 56.429 35.0565 143.845 36.4079 -7.10154 -4.29999 63.6553 30.8545
3.09211 3.08179 3.0796 3.07603 3.06733 8.7496 130.503 -10.7326 72.2846 -0.638187
64.7754 72.4706 -0.218097 72.9388 46.5893 -1.69183 73.7479 55.8265 73.808 73.3069
7.9256 7.92644 73.0027 -22.7239 2.7248 7.88531 31.4205 118.898 23.1105 7.87793
-7.15276 7.84836 1.67547 74.1622 191.715 191.719 7.82682 39.879 191.643 191.817
-23.1891 191.817 3.46799 3.47475 3.43266 3.4724 -2.19474 8.22887 108.154 8.01705
60.8548 60.8798 60.8913 60.8677 60.8821 60.9454 60.8948 60.8592 79.6241 34.7523
-17.2409 182.888 8.50534 53.7418 46.5984 60.2991 100.645 65.7721 8.47866 43.9498
39.4799 167.633 -26.6887 -11.3665 52.028 -4.61662 0.970344 10.5957 0.94133 0.935809
60.6438 8.08414 0.914427 0.913445 0.906808 151.909 64.7473 29.6486 29.7178 -0.531014
64.2482 30.3662 -3.93063 38.5182 -22.4724 30.1958 193.67 35.5593 30.3443 -2.50339
137.025 0.874351 -2.8435 -1.1471 -1.33539 89.1375 124.544 1.386 36.0886 7.96834
89.7318 5.36567 5.36591 193.092 193.093 5.30188 48.2054 192.854 -21.0147 5.31295
7.91803 193.054 89.224 193.057 2.3231 42.1809 90.0178 -25.8477 6.05171 -12.6399
-12.6448 70.688 -12.6045 6.0234 6.05986 2.52292 90.8977 2.30569 112.913 90.8115
60.1618 5.96357 1.82982 6.72339 8.13768 60.106 60.0908 60.0417 5.97929 60.0667
2.04084 60.0377 59.0584 48.5426 53.3575 -2.06218 1.85213 61.1781 58.9459 47.9269
46.7999 -13.2887 38.2514 36.5828 -0.820718 36.0305 63.1754 36.758 103.786 37.1338
185.068 37.1887 36.408 41.0264 83.2705 -5.92781 8.02607 7.87161 64.5966 171.875
7.09897 10.9216 46.3345 -24.8823 60.6443 60.396 157.53 54.0712 38.5429 -17.0721
40.925 -25.0473 -0.572993 192.413 2.55934 -0.80521 -0.801984 -0.79218 -23.5423 -1.09344
142.947 -1.08699 7.2218 -1.20746 -1.18192 -1.18154 129.619 87.0573 0.423828 71.496
-0.366307 7.82228 1.2265 39.1538 0.0773475 63.0548 59.2434 61.1594 5.29882 61.2169
53.937 118.054 -14.6044 0.0986157 61.2482 5.36188 7.72664 61.2747 62.5271 61.3252
61.2154 5.30417 2.56009 5.30136 192.333 61.2791 192.336 51.8503 -28.4933 5.30482
192.096 20.3145 44.0075 7.26625 192.329 192.332 2.56921 47.2338 5.71449 2.35671
5.45547 64.2082 2.7994 52.5711 -1.09775 63.7229 110.355 62.3443 2.84833 2.85514
-24.1033 41.1884 41.9287 -3.83765 36.2358 0.484079 36.1513 35.2619 60.7654 -25.7371
36.1572 184.816 0.648307 35.8308 76.8084 35.7882 0.0158684 0.0155055 174.393 -0.0485063
7.6588 6.55386 -0.0327096 7.25394 -0.033505 -23.2721 59.9442 40.6557 161.408 49.259
-27.6799 7.60021 44.1125 12.9539 59.1964 -15.8457 147.639 192.263 -15.7465 92.9311
93.0051 93.0161 92.9708 92.9075 92.9734 92.9773 58.0646 1.80468 62.1298 59.1767
134.522 59.1603 59.152 59.1416 59.1437 59.1191 1.3183 52.681 59.5326 -27.9303
41.6796 64.2238 0.656431 2.94397 -0.132639 75.8508 57.5494 1.43705 -9.741 2.86099
122.06 1.68194 6.54585 2.72982 7.31407 2.85159 -17.2931 47.6217 64.0764 111.989
2.88288 -26.7182 2.88152 48.5218 4.34764 58.9172 192.608 192.611 56.0274 192.395
192.63 192.632 -2.45044 2.82576 1.73556 67.9892 2.68057 61.783 34.3237 -27.1351
2.68236 33.9656 43.9564 3.01731 70.2327 44.9838 3.11036 34.6003 2.77877 6.57499
34.8529 3.13989 34.8311 5.5467 34.3619 4.41428 7.49514 2.15578 184.944 -23.0993
93.8845 45.0026 7.36656 -17.2836 2.5172 174.712 -30.0458 61.8869 13.8338 54.6265
162.768 57.2111 56.6562 64.9023 6.65973 47.6505 56.5898 56.5107 56.5219 56.503
56.4751 56.4435 56.4678 56.4385 150.211 56.3303 65.2575 52.3669 82.0705 192.964
5.64395 82.4454 82.4104 -26.7331 137.694 82.3045 82.209 -7.69177 82.2159 46.5751
63.0445 64.9841 31.2462 31.2938 125.527 49.0234 59.323 3.17108 30.7455 0.599586
7.53544 7.53552 8.87284 -4.35559 4.56322 31.274 82.6459 -4.39902 -4.38297 -4.38332
1.64706 6.88502 8.86617 3.29713 3.29882 30.435 8.9795 61.2245 55.2835 9.35619
117.99 1.31429 -25.0552 9.34379 3.31146 3.39924 2.71699 3.31372 2.40531 5.86822
7.47852 53.2745 1.04294 25.7982 -29.2624 48.3656 49.1786 56.1892 45.1453 62.5563