# vtk DataFile Version 2.0
sampleSurface
ASCII
DATASET POLYDATA
POINTS 28504 double
-0.0506574 3.25261e-19 0
-0.062995 -2.1684e-19 0.00286487
-0.0639362 -2.1684e-19 0
-0.0646056 0 0.00195427
0.0718605 0 0
0.0722397 0 0.000129588
0.0723242 0 8.8702e-05
0.0723674 0 0
-0.076776 0 0.00490487
-0.078839 0 0
-0.0819432 0 0.00117323
-0.0837712 0 0
-0.085993 2.1684e-19 0
-0.0861209 -4.33681e-19 0.00148642
-0.0866036 0 0.000171251
-0.087847 -1.0842e-19 0.0116384
-0.0881965 0 0.0112786
-0.0900038 0 0.0123483
-0.090643 -3.25261e-19 0.0118454
-0.0906976 0 0.012618
-0.0909317 -1.0842e-19 0.0126548
0.0920871 0 0.00529696
0.0944643 -4.33681e-19 0.00387292
-0.0963608 4.33681e-19 0.0080336
-0.0983472 4.33681e-19 0.00089309
0.000489984 0 0.0989926
0.000298106 0 0.0989974
9.98871e-05 0 0.0990149
0.000485974 6.23416e-19 0.0991407
9.43293e-05 3.52366e-19 0.0991717
0.0156258 5.42101e-20 0.0985799
0.0159862 0 0.0985709
0.0163227 0 0.0985881
0.0156486 2.71051e-19 0.0988618
0.0163169 0 0.0988454
0.100273 8.47033e-22 0
0.100527 0 0.000376117
-0.0996924 -4.33681e-19 0.0164862
-0.0153342 5.42101e-20 0.0999685
-0.0157017 0 0.100002
-0.0153491 -5.96311e-19 0.100255
-0.0160629 -5.42101e-20 0.100255
-0.0159354 5.42101e-20 0.100286
0.0223804 0 0.099047
0.101881 8.47033e-22 0
0.101881 8.47033e-22 0.000192208
0.00827793 8.67362e-19 0.102722
-0.00796103 1.73472e-18 0.103582
0.0306339 0 0.0993579
0.0310997 1.0842e-19 0.0993793
-0.104275 -1.0842e-19 0
0.0306546 0 0.0997274
0.0318162 1.0842e-19 0.0994922
0.0315991 -7.58942e-19 0.099709
-0.104638 1.0842e-19 8.05868e-05
-0.105286 0 0
0.0238304 -1.73472e-18 0.102593
-0.105295 0 0.00275104
-0.104379 0 0.0178795
-0.106012 0 0
-0.104494 0 0.0179005
-0.106059 5.42101e-19 0.000135996
-0.104685 0 0.0179984
-0.105106 0 0.0181935
-0.105158 0 0.0181645
0.106335 0 0.00903021
-0.105483 1.4456e-20 0.0163085
0.106366 -1.35525e-20 0.00899459
0.10656 1.35525e-20 0.00909066
0.106652 0 0.00904642
0.106666 0 0.00912853
0.106703 0 0.00913178
0.0389247 0 0.101918
0.00012995 -3.95282e-21 0.110474
0.0163414 1.31761e-21 0.110172
-0.0191416 0 0.109734
-0.0198114 0 0.111366
-0.0196586 1.35525e-20 0.111396
-0.0197683 0 0.111404
-0.0198283 0 0.11142
-0.0197388 -1.35525e-20 0.111445
-0.0196539 0 0.111508
-0.0197831 0 0.111488
-0.0198447 0 0.111498
0.113578 0 0.00666074
0.0322092 0 0.109262
0.0511405 0 0.102094
0.0507775 -4.33681e-19 0.102531
-0.114165 4.33681e-19 0.00989877
-0.114708 0 0.0016754
0.114835 -4.33681e-19 0.000849152
0.0527008 -2.1684e-19 0.102434
0.0539343 0 0.102711
0.0510091 6.50521e-19 0.104226
0.0542576 1.0842e-19 0.1029
0.00866346 8.67362e-19 0.116531
-0.00813442 0 0.116649
0.0533187 3.25261e-19 0.104414
0.117703 -4.33681e-19 0.0134268
0.0243545 8.67362e-19 0.116163
-0.116704 0 0.0232834
-0.119064 0 0.0193726
0.0610898 -8.67362e-19 0.104043
0.0416551 8.67362e-19 0.113803
0.121295 0 0
0.121321 0 6.14248e-06
0.12137 6.77626e-21 0
0.121373 2.25875e-21 0.00252027
0.121429 0 0
-0.122507 0 0
-0.122533 6.50521e-19 7.07844e-05
-0.122882 0 0
-0.122883 0 0.00398503
0.064079 0 0.105101
0.12225 0 0.0146332
0.122283 0 0.0146366
0.122337 0 0.0146642
-0.123218 0 0
-0.123225 0 8.56715e-05
0.122422 0 0.0146785
0.064445 1.0842e-19 0.105292
0.123128 -4.51751e-21 0.0125447
0.0651888 0 0.105352
0.00149266 0 0.124291
0.0663232 -1.0842e-19 0.105687
0.0663364 -1.0842e-19 0.105881
-0.0199799 -1.35525e-20 0.123498
-0.0197045 5.96311e-19 0.123562
-0.0198916 0 0.123555
-0.0198223 0 0.123652
-0.0200161 1.35525e-20 0.123621
-0.0198901 0 0.123736
-0.0196768 2.43945e-19 0.123771
0.0166349 0 0.124281
-0.0199415 1.35525e-20 0.123815
0.064818 -3.61401e-20 0.107444
-0.12525 -6.77626e-21 0.0142145
0.0573201 8.67362e-19 0.114086
0.0323877 -2.71051e-20 0.123612
-0.125881 6.77626e-21 0.0277784
-0.125952 0 0.0278224
-0.126005 6.77626e-21 0.0278346
0.072535 -4.33681e-19 0.107441
-0.127356 -6.77626e-21 0.0249919
0.130261 4.33681e-19 0.00908994
0.129659 0 0.0169822
0.130817 4.33681e-19 0.00162317
-0.131264 0 0.00211156
0.0484574 -5.42101e-20 0.122385
-0.00760337 -4.33681e-19 0.131724
0.00919562 8.67362e-19 0.13163
-0.132124 -4.33681e-19 0.0100559
0.0244946 0 0.131479
0.0778716 0 0.109298
0.0779326 3.25261e-19 0.109494
-0.133149 8.67362e-19 0.0222073
0.0788766 -1.0842e-19 0.109597
-0.132267 4.33681e-19 0.0303529
0.0801537 0 0.110089
0.0801098 -4.33681e-19 0.110287
-0.0147993 0 0.135518
0.071423 4.33681e-19 0.116289
0.135315 0 0.0200291
0.135373 0 0.020051
0.0402991 1.73472e-18 0.130822
0.135459 6.77626e-21 0.0200798
0.0780214 0 0.11258
-0.0141346 0 0.13704
-0.0141608 -1.69407e-21 0.137038
-0.0141314 0 0.13707
-0.0127443 1.69407e-21 0.137217
0.136828 1.807e-21 0.016803
0.138728 -6.77626e-21 8.05679e-06
0.138767 -6.77626e-21 0
0.138808 0 1.00997e-05
0.138767 -3.38813e-21 0.00387315
0.0639079 -2.71051e-20 0.123344
0.00285256 0 0.138951
-0.139189 0 0
-0.139193 -2.71051e-20 4.19365e-05
-0.139353 0 0
-0.139356 -2.71051e-20 0.00449669
-0.139508 0 0
-0.139509 -2.71051e-20 4.45033e-05
-0.0736461 0 0.1185
-0.0736765 3.38813e-21 0.118505
-0.0736512 -2.71051e-19 0.11856
-0.0737242 3.38813e-21 0.118532
0.0170377 9.03502e-21 0.139454
-0.140488 -2.25875e-21 0.0169861
-0.137457 0 0.0340342
-0.137476 0 0.0340531
-0.137521 6.77626e-21 0.0340709
0.0560931 0 0.130714
-0.0630244 0 0.127609
-0.0630736 3.38813e-21 0.127587
-0.0630949 3.38813e-21 0.127604
-0.0630162 3.38813e-21 0.127654
-0.0630607 3.38813e-21 0.127642
-0.0631099 -5.6243e-19 0.127639
-0.0767264 -3.04932e-20 0.120268
-0.139458 -3.16226e-21 0.0306312
0.0323077 9.03502e-21 0.139267
-0.074725 3.38813e-21 0.122842
0.0895517 -8.67362e-19 0.113884
0.0855638 -8.67362e-19 0.118219
0.0481294 0 0.138624
0.14715 -4.33681e-19 0.00208459
0.146837 -4.33681e-19 0.0106817
-0.147274 4.33681e-19 0.0022809
-0.00627729 -4.33681e-19 0.147562
0.0789817 0 0.124875
-0.147614 0 0.0109443
-0.0700821 0 0.131069
0.00838968 -4.33681e-19 0.148422
0.147159 -1.73472e-18 0.0247926
0.0244717 0 0.147381
-0.147799 1.73472e-18 0.0243967
0.0717028 0 0.131591
0.151094 1.69407e-21 0
0.151094 -1.69407e-21 0.00430549
-0.057233 6.77626e-21 0.140466
-0.0572776 0 0.140507
-0.0572257 -6.77626e-21 0.140553
-0.0573568 -6.77626e-21 0.140503
-0.057305 0 0.140554
-0.0572765 0 0.140585
-0.0573563 7.65718e-19 0.140588
-0.0571969 6.77626e-21 0.14067
0.150513 0 0.0207855
0.0400398 -1.73472e-18 0.146987
0.0639055 -2.71051e-20 0.139001
-0.148229 -1.73472e-18 0.0394773
-0.0629095 -1.01644e-20 0.140043
0.0993584 0 0.118252
0.0993652 -5.42101e-19 0.118304
-0.0850603 4.33681e-19 0.129269
0.0996556 0 0.11839
0.0998498 2.71051e-20 0.118487
0.0998096 0 0.118542
-0.155096 0 0
-0.155097 0 2.49427e-05
0.155125 -1.69407e-21 3.59083e-06
-0.155183 0 0
0.155125 6.45439e-19 0.00444521
-0.155183 0 0.00465495
-0.155267 0 0
-0.155268 0 2.53063e-05
-0.00653262 0 0.155137
-0.00627198 0 0.155211
0.152881 0 0.0285262
-0.0064328 0 0.155391
-0.00627521 2.71051e-20 0.155524
-0.151629 0 0.0352588
-0.00633319 0 0.155633
0.155774 3.38813e-21 0.00813482
0.0977074 1.807e-20 0.121858
0.0170078 -4.51751e-21 0.155378
-0.155725 -6.77626e-21 0.0173219
0.0558552 8.67362e-19 0.146685
0.0881519 -4.33681e-19 0.131261
0.157555 -4.51751e-22 0.0159563
0.0321629 4.51751e-21 0.155317
0.155912 -1.69407e-21 0.0299959
-0.0548768 0 0.149218
0.156403 -8.47033e-22 0.0290841
-0.00451089 0 0.159143
-0.0785781 2.25875e-21 0.138603
-0.0552119 5.42101e-20 0.149932
-0.157017 -1.12938e-21 0.0302011
-0.0559665 -3.79471e-19 0.14991
0.157935 -1.50584e-21 0.0261526
-0.0554549 0 0.150228
-0.154087 0 0.0442871
-0.0553514 2.71051e-19 0.150814
-0.0560577 3.79471e-19 0.150709
-0.00370518 -2.71051e-20 0.160771
0.104857 4.33681e-19 0.121949
-0.00355413 6.77626e-20 0.160801
-0.00365117 1.35525e-20 0.1609
0.0790895 0 0.140173
-0.00370256 0 0.160946
-0.00355014 0 0.160964
-0.00374372 0 0.160985
0.0478442 -1.35525e-20 0.154893
-0.0701737 0 0.146593
-0.162958 0 0.00233059
-0.156524 0 0.0457885
-0.156532 0 0.0457937
0.163095 4.33681e-19 0.002272
-0.163155 0 0.0111415
-0.0539692 0 0.154439
0.0716371 0 0.147154
0.16372 -8.67362e-19 0.0109135
-0.0538443 2.71051e-20 0.155004
-0.15858 2.11758e-22 0.0426538
-0.0535845 5.42101e-20 0.155301
-0.0537542 2.71051e-20 0.155433
0.00797658 -4.33681e-19 0.164313
-0.0540687 -2.71051e-20 0.155367
-0.0534733 0 0.155608
-0.0539929 -2.71051e-20 0.155603
-0.0537653 2.71051e-20 0.155834
-0.053394 0 0.156002
-0.0541524 -2.98156e-19 0.15585
0.0244705 -4.33681e-19 0.163327
0.16221 8.67362e-19 0.0319512
-0.098625 0 0.132795
-0.0985096 0 0.132934
-0.163834 -4.33681e-19 0.0243829
0.164041 -8.67362e-19 0.0234822
-0.0989761 0 0.133011
-0.0986386 0 0.133385
-0.0991553 -2.71051e-20 0.133124
0.110561 0 0.123997
-0.0990824 -4.60786e-19 0.133394
0.110523 -5.42101e-20 0.1241
0.110851 0 0.124143
0.111287 0 0.124399
0.111236 1.0842e-19 0.124461
0.0637087 9.03502e-21 0.154625
0.102865 4.33681e-19 0.132674
0.10895 0 0.127735
0.0398963 8.67362e-19 0.163197
-0.164308 -8.67362e-19 0.0382154
0.0946646 -5.42101e-20 0.140304
-0.162327 -4.33681e-19 0.0480596
-0.0884744 4.33681e-19 0.144452
-9.71046e-06 4.23516e-22 0.169664
0.000166543 0 0.170088
0.000408699 0 0.170103
-0.17072 0 0
-0.170773 -6.77626e-21 0
-0.170825 -6.77626e-21 1.56697e-05
-0.170773 -4.51751e-21 0.00468902
0.166965 0 0.0361826
0.166999 -6.77626e-21 0.0362002
0.170934 -6.77626e-21 1.58986e-05
0.167055 0 0.0362229
0.170989 6.77626e-21 0
0.171045 0 0
0.17099 0 0.004644
0.0872301 0 0.147557
0.017467 -4.51751e-21 0.170707
0.000835171 0 0.17191
-0.171009 0 0.0176594
0.0556436 -8.67362e-19 0.162903
0.169303 0 0.0322672
0.169333 5.29396e-23 0.0321454
0.169317 5.29396e-23 0.0322427
0.169429 -2.11758e-21 0.0322323
0.171598 -2.25875e-21 0.0176964
-0.0795497 -1.35525e-20 0.15453
0.170942 2.64698e-23 0.0332669
0.0321247 -9.03502e-21 0.171253
-0.0577178 0 0.164416
-0.166326 0 0.0526363
-0.166351 0 0.0526567
-0.171769 1.05879e-22 0.0315344
0.0793992 -6.77626e-21 0.155604
-0.169068 1.69407e-21 0.0488654
-0.169064 0 0.0488981
0.120034 0 0.129853
-0.0713441 8.67362e-19 0.162074
0.11611 8.67362e-19 0.134549
0.047662 -1.35525e-20 0.17122
0.0714249 8.67362e-19 0.162922
[...]
POINT_DATA 28504
FIELD attributes 1
U 3 28504 float
12.7768 0 0
6.88572 0 0
16.0443 0 0
13.3894 0.615564 -1.61416
11.1014 0 0
10.7467 0 0
11.0514 -0.094144 0.0822214
11.2536 0 0
16.3901 -1.26031 -3.92392
20 0 0
19.1235 0.369548 -0.969048
20 0 0
20 0 0
19.3591 0.367546 -0.446104
19.4783 0.298759 -0.0466882
0 0 0
2.17361 0.201097 -0.527326
0 0 0
1.62311 0.19334 -0.234665
0 0 0
1.31293 0.208966 -0.473901
4.57139 0 0
13.4858 -0.561385 3.83551
16.6637 -0.684226 -2.35146
17.4216 -0.70423 -0.243479
0 0 0
0 0 0
0 0 0
0.054533 0.00900577 -0.00502437
0.0652498 0.0167052 -0.015981
0 0 0
0 0 0
0 0 0
0.104149 0.0171996 -0.00959573
0.108237 0.000718537 0.00889837
19.9975 -0.00188717 0.00121213
19.1714 0 0
14.1956 -0.691844 -5.01033
0 0 0
0 0 0
0.119009 0.0304684 -0.0291476
0 0 0
0.144854 0.0384477 -0.0367339
0 0 0
20 0 0
19.4699 -0.0484719 0.15474
1.85613 -0.392313 -0.243953
1.68688 -0.0824598 -0.368217
0 0 0
0 0 0
20 0 0
0.132319 -0.09982 -0.0123182
0 0 0
0.142637 -0.181463 0.00153122
19.7545 0.140589 -0.0219704
20 0 0
2.39086 -0.853223 -0.00364349
17.0378 -0.660805 -1.41227
0 0 0
20 0 0
0.577352 0.0918911 -0.208394
19.7694 0.1215 -0.0329615
0 0 0
0 0 0
0.568225 0.0947758 -0.2345
0 0 0
15.5764 -0.674913 -4.28582
0.198507 0.0497653 0.0631613
0 0 0
0.153784 0.0378941 0.0421551
0 0 0
0.1522 0.0301437 0.037311
2.0653 -1.89537 0.190287
2.39655 -0.431653 0.277045
2.99823 -0.73309 0.389858
0 0 0
0 0 0
0.00641304 -0.00707274 -0.000809332
0.0155738 0.000170503 0.00504489
0 0 0
0.0244107 -0.00046502 -0.00314831
0.0395177 -0.00339202 0.00432891
0.0402313 -0.00138435 0.00405191
0 0 0
12.9483 -0.630873 3.19315
3.08147 -1.27625 0.47636
0 0 0
0.281816 -0.358527 0.00302532
16.6315 -0.58094 -3.12276
17.2776 -0.600984 -0.413891
13.9893 -0.546815 1.12457
0 0 0
0 0 0
0.703699 -0.238942 0.0646008
0.323566 -0.683225 0.197505
3.34565 -0.68906 0.865549
3.06054 -0.523214 0.899059
0.931275 -0.37037 0.0642988
12.8037 -0.531063 3.06269
4.08786 -0.886627 0.865227
15.0486 -0.620884 -6.07114
16.0003 -0.660963 -4.74278
1.5028 -3.42793 0.740123
3.73887 -1.43442 0.839316
20 0 0
19.9493 0.0239939 0.00795573
20 0 0
13.068 -0.609713 2.02214
19.9589 0.0165353 0.00383548
20 0 0
19.88 0.0632394 -0.0171561
20 0 0
16.9942 -0.552899 -1.42462
0 0 0
0 0 0
0.126271 0.0250083 0.0309545
0 0 0
20 0 0
19.8838 0.0504499 -0.0188014
0.0948886 0.00979214 0.0297454
0.301777 -0.637216 0.184205
12.2834 -0.568085 3.28389
0 0 0
4.05044 -1.09467 0.316551
0 0 0
0.477334 -0.66955 0.192404
0 0 0
0.0571784 -0.00490794 0.00626353
0.0582442 -0.00200416 0.00586608
0.0542786 -0.00669626 -0.0115752
0 0 0
0.0937067 -0.0310652 -0.0336758
0.0983849 -0.0316686 -0.0249475
4.87853 -1.38921 0.301396
0 0 0
3.42422 -3.46265 0.721625
16.3615 -0.591098 -3.52526
4.65955 -2.33714 0.625185
5.59441 -1.73241 0.260492
0.0931899 0.0155434 -0.0384584
0 0 0
0.0791832 0.0138827 -0.037148
2.86581 -4.58937 0.924466
15.4046 -0.603994 -5.44182
11.7614 -0.825589 3.29167
11.7145 -0.352093 3.58509
13.2357 -0.471367 0.763498
17.2339 -0.487151 -0.467347
6.12619 -2.27284 0.246359
4.40972 -1.33954 -0.257871
5.30675 -1.78088 -0.201085
16.7432 -0.534969 -2.0023
6.69451 -2.14909 -0.279142
0 0 0
0.444313 -0.623231 0.179094
16.0646 -0.555533 -4.31185
0 0 0
14.5126 -0.555608 -6.68486
0 0 0
0.42838 -0.459556 0.234204
0 0 0
5.98991 -3.39439 0.577127
0.0750208 0.00774186 0.0235173
0 0 0
7.5858 -2.41173 -0.301015
0.0566701 0.00254966 0.023781
4.81407 -4.29898 1.06931
0.0035597 -0.000848284 0.00230187
0.00122354 0.000249191 -5.43662e-05
0.0030833 0.001216 0.0026536
0.461706 -0.138572 0.0127569
12.1053 -0.542104 3.73093
19.9732 0.0107839 0.00250139
20 0 0
19.9734 0.0101055 0.00207084
12.9155 -0.598441 1.78606
7.22664 -3.07716 0.278941
5.66727 -1.70785 0.127661
20 0 0
19.9431 0.0246954 -0.00920335
20 0 0
16.9157 -0.479842 -1.14668
20 0 0
19.9413 0.0201157 -0.00690299
0.00477131 -0.000281857 -0.000357023
0 0 0
0.0134811 -0.00736106 -0.0076622
0.0115551 -0.00268132 -0.00714744
6.7306 -2.31503 -0.0271135
16.3128 -0.519071 -3.19752
0.0460474 0.00807318 -0.0216027
0 0 0
0.0433049 0.0078771 -0.0225726
8.5499 -2.94405 -0.180206
0 0 0
0.00246465 0.000798132 -0.00081099
0.00572342 -0.000146001 -0.00126493
0 0 0
0.00561103 -0.00123472 -0.00525788
0.0109286 -0.00596732 -0.00621145
0 0 0
15.1244 -0.544152 -5.76328
7.91724 -2.76636 -0.152646
0.665563 -0.305181 -0.356249
3.66886 -5.16326 1.4968
6.90513 -4.34845 1.40037
8.8783 -3.15005 -0.140161
13.574 -0.415411 0.607787
13.0018 -0.718193 2.72643
17.0677 -0.439838 -0.354019
6.12406 -1.38829 0.594256
8.16995 -3.91474 0.718066
16.5591 -0.452209 -1.91787
3.0911 -2.07533 -1.59486
6.79256 -2.28414 0.352096
10.9392 -0.321225 4.30946
8.11972 -3.0368 0.0272387
15.8945 -0.527099 -4.5365
9.86393 -3.65854 0.0768945
20 0 0
13.4369 -0.550261 1.56288
0 0 0
0.00902959 -0.00198699 -0.00846128
0 0 0
0.017587 -0.00960297 -0.00999584
0.0155171 -0.00314267 -0.00755313
0.0193712 -0.0127982 -0.0130978
0.0214326 -0.0105851 -0.0119235
0 0 0
13.4041 -0.580831 5.12377
9.26084 -3.45601 -0.0668705
9.76446 -3.59927 0.0555914
14.161 -0.547176 -7.26041
0.815562 -0.37396 -0.436537
0 0 0
0.0980397 -0.105175 0.0536003
2.58471 -0.822117 -1.45824
0 0 0
0 0 0
0.196018 -0.166889 0.0750113
20 0 0
19.9671 0.0112742 -0.00386892
19.9947 -0.00333346 0.000598408
20 0 0
13.6071 -0.534124 1.49018
16.8005 -0.421539 -0.994419
20 0 0
19.9665 0.00951064 -0.00326861
0 0 0
0.0528174 0.0208302 0.0454565
0 0 0
0 0 0
0.031569 0.0173705 0.0179201
15.0165 -0.528622 -5.99696
0 0 0
13.5201 -0.564018 2.26851
7.06204 -5.11722 1.42921
7.61394 -3.29213 0.204989
16.3096 -0.45544 -2.73073
10.1291 -3.7998 -0.00385022
9.891 -4.21877 0.783058
13.3707 -0.627482 3.89536
8.54829 -3.67734 0.149945
0.0103834 -0.00019081 0.00478418
0 0 0
2.8832 -0.088781 1.26649
0 0 0
3.07892 -1.41631 -1.64493
0.181131 -0.11967 -0.122472
15.5551 -0.494174 -4.74078
0.199384 -0.0984717 -0.110923
12.1169 -0.366875 5.32325
0.174911 -0.076571 -0.0817024
0 0 0
0.269316 -0.2538 -0.112814
0.297451 -0.183758 -0.17128
0.111623 -0.0410483 -0.00852518
5.5645 -6.38602 1.81542
0.0974104 -0.037501 -0.0091524
0.0543388 -0.0233612 -0.00868933
10.2138 -3.99667 0.475711
0.105672 -0.0641771 -0.0107571
0.104635 -0.0610314 -0.0104628
0 0 0
9.17528 -3.82249 0.218664
3.69255 -2.10353 -1.84628
16.9739 -0.387178 -0.300182
0.00568616 -0.00145446 -0.0029689
0.0065234 -0.00165657 -0.00357408
13.8988 -0.393394 0.554434
16.5427 -0.408039 -1.57799
0 0 0
10.5 -3.9944 0.331329
13.9347 -0.643864 2.3433
0 0 0
13.7115 -0.48907 -6.29965
0 0 0
0.0449886 0.0343305 -0.051674
7.4069 -3.81001 0.163736
0.102903 -0.0679862 -0.0695779
0 0 0
0.0949377 -0.0331149 -0.0388438
0.0827725 -0.0365815 0.00235828
0 0 0
0.15343 -0.14459 -0.0642704
8.16182 -4.10262 0.259924
11.1462 0.010443 6.14411
0 0 0
0.048279 -0.0247099 -0.0213255
16.218 -0.436827 -2.99604
12.914 -0.601852 5.41337
0 0 0
0.0591709 -0.0208265 -0.0276529
0 0 0
0 0 0
0.0348111 -0.00900398 -0.0257477
0.314093 -0.267419 0.120196
0 0 0
0 0 0
0.311917 -0.158338 0.169031
9.38867 -3.82604 0.445756
10.3523 -4.5939 1.41875
8.23748 -5.51284 2.33422
8.69145 -4.11973 0.368741
15.1233 -0.483747 -5.39157
10.2929 -4.2875 1.11844
13.4708 -0.509774 -7.80144
2.91869 -0.662822 -1.65818
0 0 0
0.00126434 -0.000193551 0.000474157
0.0929094 -0.0425558 0.00977038
19.9855 0.00411706 -0.00141495
20 0 0
19.9837 0.00391141 -0.00128486
16.7448 -0.374916 -0.831537
0.0467572 0.00171151 0.0245519
0 0 0
19.9711 -0.0175464 0.00316472
0.0447272 0.00346404 0.0271674
20 0 0
19.9752 -0.0139502 0.00253183
14.1272 -0.504788 1.30882
10.5514 -4.13257 0.726429
6.79823 -3.13949 0.680146
0 0 0
16.338 -0.400863 -2.14314
8.63744 -3.92739 0.578683
12.1817 -0.322968 6.03821
12.2682 -0.326937 6.06002
12.2577 -0.324939 6.07591
12.2666 -0.326404 6.07444
13.8303 -0.629905 3.70039
3.95698 -1.95149 -2.17963
12.2238 -0.316579 6.19626
7.23285 -3.2246 0.789727
5.53352 -4.97227 -2.14427
0.0223412 -0.00563755 -0.0127404
0.0281856 -0.00652051 -0.0176512
15.601 -0.445316 -4.13835
9.29555 -3.75284 0.808904
14.0512 -0.49806 -6.88771
14.0493 -0.499492 -6.8905
7.4187 -5.84913 3.22874
5.15162 -3.32662 -2.76228
10.2577 -5.02981 3.35596
7.39181 -3.13207 0.92367
8.24095 -3.58232 0.892178
16.9147 -0.344979 -0.246022
2.2788 -0.434828 -1.74577
14.2055 -0.389129 0.501253
0 0 0
10.3225 -4.55785 2.40259
0 0 0
0.0139137 -0.00359882 -0.0102912
16.491 -0.361754 -1.35715
0 0 0
0.0137516 -0.00359817 -0.0108827
14.5001 -0.623389 2.03111
0 0 0
0.126897 -0.0560824 0.00361544
10.3646 -4.21501 1.56143
0.235071 -0.221528 -0.098469
0 0 0
5.68742 -2.25431 1.10405
0.139944 -0.0893299 -0.0358055
0.130507 -0.0521235 0.145067
16.0916 -0.396218 -2.65565
0 0 0
14.0054 -0.658562 4.93281
0.210754 -0.240352 -0.0677012
3.20537 -1.00618 -2.03607
10.7041 -0.00578816 6.77884
5.83369 -2.32426 1.22857
9.14355 -3.69437 1.34132
7.16136 -2.92725 1.07786
15.0054 -0.467451 -5.51645
6.15768 -2.295 1.33554
0 0 0
4.08085 -1.63635 -2.4726
5.10785 -4.54433 -2.26164
7.93998 -3.31799 1.27278
12.9649 -0.492497 7.2426
13.0801 -0.52396 -8.34237
19.9899 0.00241933 -0.000794726
20 0 0
19.9887 0.00238594 -0.000694035
16.7079 -0.334476 -0.701076
20 0 0
19.9475 -0.0295302 0.00535944
20 0 0
14.5596 -0.485684 1.14645
20 0 0
19.951 -0.0261697 0.00488147
0 0 0
0.59449 -0.30178 0.322161
16.3192 -0.357675 -1.79092
6.09766 -2.19728 1.41107
14.5523 -0.626498 3.24746
0 0 0
6.74961 -2.65952 1.26173
13.8423 -0.508251 -6.95755
15.8348 -0.389841 -3.10727
9.43343 -4.87119 4.26101
15.7105 -0.398179 -3.44493
0 0 0
0.838661 -0.297682 0.615047
4.67181 -3.50538 -2.74746
2.56384 -0.413542 -2.10175
0 0 0
0.0403849 -0.0225172 0.00300983
0 0 0
10.3124 -4.38586 3.31949
0.0119393 -0.00565043 0.00433765
0 0 0
4.77555 -5.12105 -1.35297
2.52663 -0.544632 -1.95648
4.88437 -1.00916 1.7841
13.7641 -0.581145 5.82384
9.00066 -3.66377 2.31773
0.0398485 0.00308619 0.0242041
0 0 0
0.0385874 0.00886451 0.0313428
3.03811 -0.714041 -2.1504
5.66524 -1.99945 1.43446
7.71375 -3.11547 1.80744
14.6589 -0.447 -5.44798
11.8621 -0.22742 7.47739
5.11231 -0.970148 1.80576
0.24445 -0.136296 0.0182185
0.193866 -0.100231 0.0193456
4.97602 -4.79392 -2.69185
0.068647 -0.0318624 0.00357848
16.8738 -0.308234 -0.194858
0.0727965 -0.034452 0.0264477
0.0879225 -0.0103246 0.0497115
0 0 0
16.4965 -0.325449 -1.14774
14.5914 -0.381913 0.462074
0.0007601 -0.000562192 0.000417386
0.0383333 -0.00886809 -0.0240061
0 0 0
14.9851 -0.579726 1.77981
0.0386647 -0.0120158 -0.0274382
3.75412 -2.19287 -2.64309
16.1942 -0.348449 -2.01413
6.43892 -2.42172 1.52822
13.19 -0.478948 -7.37348
14.6935 -0.650895 4.35236
3.52485 0.299777 2.32413
5.07482 -0.984145 1.76607
15.5341 -0.38101 -3.62917
5.11923 -1.7142 1.46033
9.06471 -4.92763 5.88375
4.49801 -4.1855 -3.04729
13.38 -0.536192 6.78523
3.96927 0.347634 2.28026
10.0711 -4.19213 5.37305
3.44925 -4.06406 -1.2372
0 0 0
0.120957 -0.0151008 -0.100404
9.20066 -3.65648 3.98476
0 0 0
0.118885 -0.0259903 -0.105514
0 0 0
0.0856668 -0.025583 -0.0895387
7.74155 -3.00157 2.65367
2.40334 -0.628144 -2.03118
19.9925 0.00158253 -0.000460336
20 0 0
19.9917 0.0017053 -0.000461689
16.7114 -0.300893 -0.605304
20 0 0
19.941 -0.0314999 0.00587571
0 0 0
14.2674 -0.430505 -5.67334
20 0 0
0.0643066 -0.030434 0.0233633
14.9837 -0.466049 1.0275
0.0776918 -0.0091232 0.043927
20 0 0
19.9458 -0.0281514 0.00523364
0 0 0
0.0313301 -0.00642872 0.00997895
0.0131344 -0.0201106 0.0113888
16.3825 -0.320313 -1.43529
16.3823 -0.320522 -1.43594
0.0786438 0.0408747 0.064017
0 0 0
9.86407 0.373539 8.22361
4.79091 -0.919185 1.68277
4.26278 0.21705 2.18371
15.0385 -0.608542 2.93498
16.0787 -0.337042 -2.15585
6.36462 -2.2365 1.96427
2.88341 -1.22425 -2.4329
3.75863 -4.67615 -2.3977
1.46477 -1.72837 0.741312
15.9083 -0.346379 -2.5601
0 0 0
14.2877 -0.602215 5.32892
4.35127 1.33571 2.24011
12.0079 -0.388345 8.62691
11.8191 -0.455091 -8.53738
3.39558 -2.2006 -2.90275
5.00549 -1.56466 1.56853
4.28597 0.0191564 2.02984
8.25915e-05 0.000123189 -0.000157496
9.09058e-05 7.13454e-05 -2.13928e-05
0.00825996 -0.0063743 0.00115583
0 0 0
15.1039 -0.382023 -4.10038
2.52341 -4.40245 -1.43925
1.30008 -0.461462 0.953437
0 0 0
12.8474 -0.482345 -7.41759
4.70229 1.34413 2.27797
3.4426 -4.0684 -2.73598
12.7747 -0.462379 7.6093
4.75342 -0.816256 1.67771
16.8794 -0.276984 -0.177258
16.5442 -0.2961 -1.033
15.0193 -0.368691 0.415479
0 0 0
9.00837 -3.62503 5.88577
15.3898 -0.562358 1.61633
8.75426 -3.06227 4.68735
16.2936 -0.313014 -1.54989
15.0759 -0.649774 4.05288
0 0 0
1.34331 -0.295278 1.17189
4.72997 2.29312 2.08021
1.76448 -0.661434 -1.82615
0 0 0
0.0456709 0.0104918 0.0370965
6.74666 -2.10738 2.98097
0 0 0
0.0599725 0.013841 0.0551253
13.8626 -0.430608 -5.87085
4.76497 1.14758 2.25569
3.0221 -5.29281 -2.39524
4.09912 0.0207037 1.81701
15.5934 -0.343386 -3.0778
1.26703 -0.979234 0.172028
10.8175 0.022629 8.74284
5.04329 -1.28959 1.85275
2.10851 -0.826171 -2.13377
2.65329 -1.26084 -2.60113
13.9834 -0.572653 6.1719
5.1646 2.4441 2.2822
0.050629 -0.015734 -0.0359287
0 0 0
0.0513185 -0.0172941 -0.0401586
0.0153827 -0.023553 0.0133382
0 0 0
0.0920501 0.0478425 0.0749299
0 0 0
2.77673 -2.75194 -2.7204
0.0469149 0.037827 0.113502
-0.00307672 0.0742475 0.0154522
4.56476 -0.613948 1.71373
0 0 0
0.0194704 0.0407253 0.000546916
0.0634489 -0.0526586 0.0379136
0.098555 0.148684 -0.0709203
0.0141453 0.0839352 -0.00298063
0 0 0
0 0 0
19.9971 0.000587897 -0.000161312
16.733 -0.277712 -0.560643
12.1587 -0.45869 -7.64075
14.9622 -0.379097 -4.14347
-0.14027 2.65639 0.652101
20 0 0
19.9412 -0.0305445 0.00567855
1.9388 -3.37131 -0.958035
20 0 0
15.4186 -0.45454 0.915541
20 0 0
19.9469 -0.0276897 0.00484429
4.54999 0.936654 2.14048
11.7111 -0.366397 8.85139
16.4136 -0.298088 -1.29389
15.4727 -0.600281 2.66798
9.75389 0.469028 9.08848
5.38625 2.3292 2.37353
0 0 0
2.75285 -4.40568 -2.71
16.0014 -0.311733 -2.1442
4.10376 0.0465943 1.72266
14.8046 -0.616341 4.81243
0.198788 0.352605 -0.432128
5.57792 1.60308 2.27474
0 0 0
0.628601 1.02988 -0.434705
8.52446 -3.38838 6.8045
8.67284 -2.59353 6.53816
0.433632 0.743603 -0.600352
13.4024 -0.432615 -6.21159
7.49106 -1.97695 4.8105
0 0 0
1.17655 -0.352612 0.712319
15.4034 -0.339517 -3.23759
5.11172 1.99794 2.43539
5.56907 -1.12298 2.85762
1.93508 -0.868939 -2.42143
0 0 0
0.121089 0.027946 0.111302
2.02885 -4.41975 -1.86182
0 0 0
0 0 0
0.106634 0.0241868 0.117305
4.33102 0.83803 1.97258
13.2134 -0.495397 7.15338
0 0 0
0.0404066 -0.0221353 -0.0408794
6.10491 1.95047 2.46914
0 0 0
0.0461544 -0.033205 -0.0524732
0.016413 -0.0124696 -0.0142569
0 0 0
4.68116 -0.282104 2.09007
10.62 -0.0129025 9.21812
15.4737 -0.365342 0.355551
2.10333 -1.68853 -2.58195
15.8432 -0.550254 1.42665
10.7684 -0.467735 -8.59757
15.5838 -0.643197 3.56285
14.5038 -0.37929 -4.50955
4.09981 0.383171 1.72837
2.24892 -2.89226 -2.68582
0.997035 -3.34375 -0.652413
5.87593 0.363073 2.15284
4.70891 1.70736 2.28572
0.938155 1.7571 0.49524
6.41839 2.04983 2.56471
15.8354 -0.300307 -2.39828
11.8844 -0.473894 -7.51746
14.589 -0.604939 5.45665
3.79298 6.10677 -3.96941
1.89703 -3.93049 -2.23438
4.1682 0.929603 1.84473
1.17894 -0.259149 1.0285
0 0 0
6.51216 1.17877 2.57013
7.76649 -1.84542 6.59179
12.581 -0.447134 8.12969
0.540986 3.47842 -0.242522
1.48487 -0.57842 0.428194
15.2245 -0.335987 -3.32303
0 0 0
13.0979 -0.428173 -6.08153
6.98026 -1.11155 5.20021
0.0177441 -0.0127657 -0.0201734
6.31097 1.97346 2.59776
0 0 0
0.00627403 -0.00476662 -0.00544982
0.00742078 -0.00554436 -0.00830879
0.0206797 -0.022858 -0.0286387
20 0 0
19.9463 -0.0279811 0.00489528
0.0166747 -0.0197159 -0.0250585
20 0 0
15.8531 -0.451687 0.773614
20 0 0
19.9512 -0.0263416 0.00399861
16.5665 -0.270521 -0.950402
1.31932 -4.60484 -1.66472
0.962315 -0.00566336 1.01822
0 0 0
0 0 0
9.03907 0.432602 9.95432
16.9077 -0.25184 -0.180734
15.885 -0.605889 2.37395
4.41992 1.57558 2.07386
5.17667 -0.00403209 3.18924
0 0 0
0.0886685 -0.0735893 0.0529835
7.35646 1.80963 2.66175
0 0 0
15.2687 -0.64194 4.34088
-0.0355265 -0.0461371 -0.0131302
16.0941 -0.280394 -1.87083
0 0 0
1.83699 -1.65205 -2.8528
4.01833 0.880265 1.94635
20 0 0
0.071798 -0.0241956 -0.0561845
0 0 0
0.092379 -0.0376505 -0.0780745
14.3516 -0.375272 -4.47715
10.7287 -0.429318 9.97025
2.0048 1.43792 0.896767
0 0 0
15.6703 -0.300697 -2.55851
1.41573 -2.58766 -0.434419
0.154626 0.233274 -0.111269
0.310892 0.128543 -0.0162108
0 0 0
0.131556 0.12246 -0.0667405
3.96467 1.28559 1.83121
11.2406 -0.475475 -7.60344
1.59128 -2.87697 -2.43106
0.321669 0.260607 -0.160486
0.237679 0.326153 -0.161158
0 0 0
0 0 0
5.98788 1.91732 2.51281
0.897457 1.47036 -0.62063
13.952 -0.557226 6.40373
7.76823 2.05729 2.79036
0.00288843 -0.00126427 -0.00466136
0.105194 -0.0873043 0.0628581
0.162198 0.00781618 0.101934
0.0478761 0.0065077 0.00337329
3.23026 5.28625 -2.27466
-0.0422383 -0.0548536 -0.0156108
0 0 0
-0.0120702 -0.105236 0.043857
1.26922 -3.82624 -1.87502
4.06883 1.72529 1.87517
15.9042 -0.366812 0.295235
5.63249 0.427624 2.57564
16.2426 -0.554434 1.15677
14.98 -0.33369 -3.48973
1.77675 -0.117527 0.724637
12.801 -0.435548 -6.07045
0 0 0
12.0444 -0.463346 8.63975
15.8714 -0.680092 3.35672
0 0 0
0.129754 0.029431 0.142739
2.21772 2.86407 0.0480619
7.62289 2.12496 2.8778
0 0 0
16.7808 -0.243381 -0.487845
0 0 0
6.89818 -0.568015 6.76216
0.118711 0.0262432 0.159196
7.62563 -1.3879 7.56304
5.83293 0.200115 4.93631
16.0531 -0.268035 -1.92718
1.40123 -3.68845 -1.32647
1.68088 -1.24242 -2.77878
15.0227 -0.642628 5.01426
5.51381 2.01099 2.33842
6.77902 1.17889 2.9022
4.2743 1.25797 2.93102
9.80229 -0.124765 10.1914
9.72412 -0.515221 -8.42498
1.39269 -2.00311 -2.59826
3.66723 1.79979 2.1024
2.29462 1.24906 0.692901
13.9906 -0.374274 -4.59976
5.69902 8.14673 -4.73817
15.578 -0.297352 -2.56188
13.5101 -0.535243 7.15117
3.6143 -1.25923 2.19728
19.9981 -0.000658467 -0.000102927
7.63299 1.64687 3.10585
7.18589 2.25716 2.81312
20 0 0
19.954 -0.0248515 0.00377241
20 0 0
3.60465 2.18241 1.73352
16.601 -0.44614 0.72807
1.0362 -3.04842 -2.34119
19.992 -0.0115422 0.000923635
11.0716 -0.49346 -7.40364
3.22129 3.96961 -0.80049
16.3739 -0.587037 2.08244
16.3111 -0.252803 -1.42311
15.7447 -0.637772 3.84859
4.83137 2.27299 2.1314
11.3861 -0.450797 9.28191
0 0 0
0.704355 0.570649 -0.351415
1.00479 -3.19097 -1.64038
0.518777 0.711887 -0.351756
14.7631 -0.328163 -3.59856
2.01732 -0.0853349 0.626649
4.91748 -0.0985707 2.86112
0 0 0
0.343305 0.405202 -0.276972
0 0 0
2.9694 2.58876 0.324933
-0.0470286 -0.0610746 -0.0173813
0.837339 0.825426 -0.591877
12.5147 -0.43222 -5.94779
-0.0134321 -0.11711 0.0488056
0 0 0
15.9042 -0.272824 -2.09215
0.549654 0.981038 -0.493812
0 0 0
0 0 0
7.91043 1.95565 3.16384
0 0 0
0 0 0
8.37996 0.368205 11.0464
14.5508 -0.621484 5.69174
2.03516 3.04183 -1.38392
0.451554 -0.00265746 0.477786
0 0 0
6.2759 0.238904 6.41539
0 0 0
6.93193 0.879077 3.28054
0.0120944 -0.0143003 -0.0181753
0 0 0
0.000909237 -0.00258754 -0.00189702
0.00756955 -0.0215417 -0.015793
0 0 0
0.00599855 -0.0237226 -0.0141857
5.21717 1.20913 4.94451
0.340413 0.121901 0.372661
0 0 0
6.39219 2.48688 2.59954
4.7395 7.0789 -3.23812
3.69771 2.15236 3.01529
0 0 0
0.0995173 -0.0405598 -0.0841073
0 0 0
0 0 0
0.0965921 -0.0388999 -0.0969904
2.42743 1.06558 0.806736
9.67016 -0.576567 10.6106
13.955 -0.365329 -4.36819
15.3361 -0.295251 -2.7967
12.9474 -0.551482 7.6418
1.04072 -2.01359 -2.42816
2.77549 2.87012 1.8199
3.63008 4.02511 -0.823128
8.1522 1.51695 3.47378
1.76184 -1.90733 0.172156
10.1764 -0.492727 -7.61096
7.74594 2.2355 3.08329
3.8056 2.79341 1.93973
15.4795 -0.674466 4.37218
0.680093 -2.79634 -2.06106
-0.0135221 -0.117895 0.0491326
0.0788801 -0.0181272 0.101511
0 0 0
0 0 0
-0.0335528 -0.103351 0.00387351
14.6234 -0.324248 -3.55733
0 0 0
11.045 -0.558505 9.5136
3.22727 2.44658 0.194822
5.79693 10.9549 -5.48154
3.7405 -0.744109 2.33848
0.334351 -3.32906 -1.59517
0 0 0
0.115035 0.0254307 0.154268
5.22669 2.82338 2.28399
12.234 -0.442363 -5.96069
0 0 0
0 0 0
0.111374 0.0269418 0.162569
14.1957 -0.646327 6.2284
8.64538 1.92184 3.49633
8.43517 -0.519547 -8.64878
5.78238 0.43729 2.96713
4.28302 5.73421 -2.26137
16.9579 -0.207976 -0.138831
8.96138 -0.225306 10.7466
16.6792 -0.218272 -0.73292
17.4505 -0.491238 1.47988
0.800962 -2.30387 -0.976401
5.03597 1.67032 5.89073