# vtk DataFile Version 2.0
sampleSurface
ASCII
DATASET POLYDATA
POINTS 28504 double
-0.0506574 3.25261e-19 0
-0.062995 -2.1684e-19 0.00286487
-0.0639362 -2.1684e-19 0
-0.0646056 0 0.00195427
0.0718605 0 0
0.0722397 0 0.000129588
0.0723242 0 8.8702e-05
0.0723674 0 0
-0.076776 0 0.00490487
-0.078839 0 0
-0.0819432 0 0.00117323
-0.0837712 0 0
-0.085993 2.1684e-19 0
-0.0861209 -4.33681e-19 0.00148642
-0.0866036 0 0.000171251
-0.087847 -1.0842e-19 0.0116384
-0.0881965 0 0.0112786
-0.0900038 0 0.0123483
-0.090643 -3.25261e-19 0.0118454
-0.0906976 0 0.012618
-0.0909317 -1.0842e-19 0.0126548
0.0920871 0 0.00529696
0.0944643 -4.33681e-19 0.00387292
-0.0963608 4.33681e-19 0.0080336
-0.0983472 4.33681e-19 0.00089309
0.000489984 0 0.0989926
0.000298106 0 0.0989974
9.98871e-05 0 0.0990149
0.000485974 6.23416e-19 0.0991407
9.43293e-05 3.52366e-19 0.0991717
0.0156258 5.42101e-20 0.0985799
0.0159862 0 0.0985709
0.0163227 0 0.0985881
0.0156486 2.71051e-19 0.0988618
0.0163169 0 0.0988454
0.100273 8.47033e-22 0
0.100527 0 0.000376117
-0.0996924 -4.33681e-19 0.0164862
-0.0153342 5.42101e-20 0.0999685
-0.0157017 0 0.100002
-0.0153491 -5.96311e-19 0.100255
-0.0160629 -5.42101e-20 0.100255
-0.0159354 5.42101e-20 0.100286
0.0223804 0 0.099047
0.101881 8.47033e-22 0
0.101881 8.47033e-22 0.000192208
0.00827793 8.67362e-19 0.102722
-0.00796103 1.73472e-18 0.103582
0.0306339 0 0.0993579
0.0310997 1.0842e-19 0.0993793
-0.104275 -1.0842e-19 0
0.0306546 0 0.0997274
0.0318162 1.0842e-19 0.0994922
0.0315991 -7.58942e-19 0.099709
-0.104638 1.0842e-19 8.05868e-05
-0.105286 0 0
0.0238304 -1.73472e-18 0.102593
-0.105295 0 0.00275104
-0.104379 0 0.0178795
-0.106012 0 0
-0.104494 0 0.0179005
-0.106059 5.42101e-19 0.000135996
-0.104685 0 0.0179984
-0.105106 0 0.0181935
-0.105158 0 0.0181645
0.106335 0 0.00903021
-0.105483 1.4456e-20 0.0163085
0.106366 -1.35525e-20 0.00899459
0.10656 1.35525e-20 0.00909066
0.106652 0 0.00904642
0.106666 0 0.00912853
0.106703 0 0.00913178
0.0389247 0 0.101918
0.00012995 -3.95282e-21 0.110474
0.0163414 1.31761e-21 0.110172
-0.0191416 0 0.109734
-0.0198114 0 0.111366
-0.0196586 1.35525e-20 0.111396
-0.0197683 0 0.111404
-0.0198283 0 0.11142
-0.0197388 -1.35525e-20 0.111445
-0.0196539 0 0.111508
-0.0197831 0 0.111488
-0.0198447 0 0.111498
0.113578 0 0.00666074
0.0322092 0 0.109262
0.0511405 0 0.102094
0.0507775 -4.33681e-19 0.102531
-0.114165 4.33681e-19 0.00989877
-0.114708 0 0.0016754
0.114835 -4.33681e-19 0.000849152
0.0527008 -2.1684e-19 0.102434
0.0539343 0 0.102711
0.0510091 6.50521e-19 0.104226
0.0542576 1.0842e-19 0.1029
0.00866346 8.67362e-19 0.116531
-0.00813442 0 0.116649
0.0533187 3.25261e-19 0.104414
0.117703 -4.33681e-19 0.0134268
0.0243545 8.67362e-19 0.116163
-0.116704 0 0.0232834
-0.119064 0 0.0193726
0.0610898 -8.67362e-19 0.104043
0.0416551 8.67362e-19 0.113803
0.121295 0 0
0.121321 0 6.14248e-06
0.12137 6.77626e-21 0
0.121373 2.25875e-21 0.00252027
0.121429 0 0
-0.122507 0 0
-0.122533 6.50521e-19 7.07844e-05
-0.122882 0 0
-0.122883 0 0.00398503
0.064079 0 0.105101
0.12225 0 0.0146332
0.122283 0 0.0146366
0.122337 0 0.0146642
-0.123218 0 0
-0.123225 0 8.56715e-05
0.122422 0 0.0146785
0.064445 1.0842e-19 0.105292
0.123128 -4.51751e-21 0.0125447
0.0651888 0 0.105352
0.00149266 0 0.124291
0.0663232 -1.0842e-19 0.105687
0.0663364 -1.0842e-19 0.105881
-0.0199799 -1.35525e-20 0.123498
-0.0197045 5.96311e-19 0.123562
-0.0198916 0 0.123555
-0.0198223 0 0.123652
-0.0200161 1.35525e-20 0.123621
-0.0198901 0 0.123736
-0.0196768 2.43945e-19 0.123771
0.0166349 0 0.124281
-0.0199415 1.35525e-20 0.123815
0.064818 -3.61401e-20 0.107444
-0.12525 -6.77626e-21 0.0142145
0.0573201 8.67362e-19 0.114086
0.0323877 -2.71051e-20 0.123612
-0.125881 6.77626e-21 0.0277784
-0.125952 0 0.0278224
-0.126005 6.77626e-21 0.0278346
0.072535 -4.33681e-19 0.107441
-0.127356 -6.77626e-21 0.0249919
0.130261 4.33681e-19 0.00908994
0.129659 0 0.0169822
0.130817 4.33681e-19 0.00162317
-0.131264 0 0.00211156
0.0484574 -5.42101e-20 0.122385
-0.00760337 -4.33681e-19 0.131724
0.00919562 8.67362e-19 0.13163
-0.132124 -4.33681e-19 0.0100559
0.0244946 0 0.131479
0.0778716 0 0.109298
0.0779326 3.25261e-19 0.109494
-0.133149 8.67362e-19 0.0222073
0.0788766 -1.0842e-19 0.109597
-0.132267 4.33681e-19 0.0303529
0.0801537 0 0.110089
0.0801098 -4.33681e-19 0.110287
-0.0147993 0 0.135518
0.071423 4.33681e-19 0.116289
0.135315 0 0.0200291
0.135373 0 0.020051
0.0402991 1.73472e-18 0.130822
0.135459 6.77626e-21 0.0200798
0.0780214 0 0.11258
-0.0141346 0 0.13704
-0.0141608 -1.69407e-21 0.137038
-0.0141314 0 0.13707
-0.0127443 1.69407e-21 0.137217
0.136828 1.807e-21 0.016803
0.138728 -6.77626e-21 8.05679e-06
0.138767 -6.77626e-21 0
0.138808 0 1.00997e-05
0.138767 -3.38813e-21 0.00387315
0.0639079 -2.71051e-20 0.123344
0.00285256 0 0.138951
-0.139189 0 0
-0.139193 -2.71051e-20 4.19365e-05
-0.139353 0 0
-0.139356 -2.71051e-20 0.00449669
-0.139508 0 0
-0.139509 -2.71051e-20 4.45033e-05
-0.0736461 0 0.1185
-0.0736765 3.38813e-21 0.118505
-0.0736512 -2.71051e-19 0.11856
-0.0737242 3.38813e-21 0.118532
0.0170377 9.03502e-21 0.139454
-0.140488 -2.25875e-21 0.0169861
-0.137457 0 0.0340342
-0.137476 0 0.0340531
-0.137521 6.77626e-21 0.0340709
0.0560931 0 0.130714
-0.0630244 0 0.127609
-0.0630736 3.38813e-21 0.127587
-0.0630949 3.38813e-21 0.127604
-0.0630162 3.38813e-21 0.127654
-0.0630607 3.38813e-21 0.127642
-0.0631099 -5.6243e-19 0.127639
-0.0767264 -3.04932e-20 0.120268
-0.139458 -3.16226e-21 0.0306312
0.0323077 9.03502e-21 0.139267
-0.074725 3.38813e-21 0.122842
0.0895517 -8.67362e-19 0.113884
0.0855638 -8.67362e-19 0.118219
0.0481294 0 0.138624
0.14715 -4.33681e-19 0.00208459
0.146837 -4.33681e-19 0.0106817
-0.147274 4.33681e-19 0.0022809
-0.00627729 -4.33681e-19 0.147562
0.0789817 0 0.124875
-0.147614 0 0.0109443
-0.0700821 0 0.131069
0.00838968 -4.33681e-19 0.148422
0.147159 -1.73472e-18 0.0247926
0.0244717 0 0.147381
-0.147799 1.73472e-18 0.0243967
0.0717028 0 0.131591
0.151094 1.69407e-21 0
0.151094 -1.69407e-21 0.00430549
-0.057233 6.77626e-21 0.140466
-0.0572776 0 0.140507
-0.0572257 -6.77626e-21 0.140553
-0.0573568 -6.77626e-21 0.140503
-0.057305 0 0.140554
-0.0572765 0 0.140585
-0.0573563 7.65718e-19 0.140588
-0.0571969 6.77626e-21 0.14067
0.150513 0 0.0207855
0.0400398 -1.73472e-18 0.146987
0.0639055 -2.71051e-20 0.139001
-0.148229 -1.73472e-18 0.0394773
-0.0629095 -1.01644e-20 0.140043
0.0993584 0 0.118252
0.0993652 -5.42101e-19 0.118304
-0.0850603 4.33681e-19 0.129269
0.0996556 0 0.11839
0.0998498 2.71051e-20 0.118487
0.0998096 0 0.118542
-0.155096 0 0
-0.155097 0 2.49427e-05
0.155125 -1.69407e-21 3.59083e-06
-0.155183 0 0
0.155125 6.45439e-19 0.00444521
-0.155183 0 0.00465495
-0.155267 0 0
-0.155268 0 2.53063e-05
-0.00653262 0 0.155137
-0.00627198 0 0.155211
0.152881 0 0.0285262
-0.0064328 0 0.155391
-0.00627521 2.71051e-20 0.155524
-0.151629 0 0.0352588
-0.00633319 0 0.155633
0.155774 3.38813e-21 0.00813482
0.0977074 1.807e-20 0.121858
0.0170078 -4.51751e-21 0.155378
-0.155725 -6.77626e-21 0.0173219
0.0558552 8.67362e-19 0.146685
0.0881519 -4.33681e-19 0.131261
0.157555 -4.51751e-22 0.0159563
0.0321629 4.51751e-21 0.155317
0.155912 -1.69407e-21 0.0299959
-0.0548768 0 0.149218
0.156403 -8.47033e-22 0.0290841
-0.00451089 0 0.159143
-0.0785781 2.25875e-21 0.138603
-0.0552119 5.42101e-20 0.149932
-0.157017 -1.12938e-21 0.0302011
-0.0559665 -3.79471e-19 0.14991
0.157935 -1.50584e-21 0.0261526
-0.0554549 0 0.150228
-0.154087 0 0.0442871
-0.0553514 2.71051e-19 0.150814
-0.0560577 3.79471e-19 0.150709
-0.00370518 -2.71051e-20 0.160771
0.104857 4.33681e-19 0.121949
-0.00355413 6.77626e-20 0.160801
-0.00365117 1.35525e-20 0.1609
0.0790895 0 0.140173
-0.00370256 0 0.160946
-0.00355014 0 0.160964
-0.00374372 0 0.160985
0.0478442 -1.35525e-20 0.154893
-0.0701737 0 0.146593
-0.162958 0 0.00233059
-0.156524 0 0.0457885
-0.156532 0 0.0457937
0.163095 4.33681e-19 0.002272
-0.163155 0 0.0111415
-0.0539692 0 0.154439
0.0716371 0 0.147154
0.16372 -8.67362e-19 0.0109135
-0.0538443 2.71051e-20 0.155004
-0.15858 2.11758e-22 0.0426538
-0.0535845 5.42101e-20 0.155301
-0.0537542 2.71051e-20 0.155433
0.00797658 -4.33681e-19 0.164313
-0.0540687 -2.71051e-20 0.155367
-0.0534733 0 0.155608
-0.0539929 -2.71051e-20 0.155603
-0.0537653 2.71051e-20 0.155834
-0.053394 0 0.156002
-0.0541524 -2.98156e-19 0.15585
0.0244705 -4.33681e-19 0.163327
0.16221 8.67362e-19 0.0319512
-0.098625 0 0.132795
-0.0985096 0 0.132934
-0.163834 -4.33681e-19 0.0243829
0.164041 -8.67362e-19 0.0234822
-0.0989761 0 0.133011
-0.0986386 0 0.133385
-0.0991553 -2.71051e-20 0.133124
0.110561 0 0.123997
-0.0990824 -4.60786e-19 0.133394
0.110523 -5.42101e-20 0.1241
0.110851 0 0.124143
0.111287 0 0.124399
0.111236 1.0842e-19 0.124461
0.0637087 9.03502e-21 0.154625
0.102865 4.33681e-19 0.132674
0.10895 0 0.127735
0.0398963 8.67362e-19 0.163197
-0.164308 -8.67362e-19 0.0382154
0.0946646 -5.42101e-20 0.140304
-0.162327 -4.33681e-19 0.0480596
-0.0884744 4.33681e-19 0.144452
-9.71046e-06 4.23516e-22 0.169664
0.000166543 0 0.170088
0.000408699 0 0.170103
-0.17072 0 0
-0.170773 -6.77626e-21 0
-0.170825 -6.77626e-21 1.56697e-05
-0.170773 -4.51751e-21 0.00468902
0.166965 0 0.0361826
0.166999 -6.77626e-21 0.0362002
0.170934 -6.77626e-21 1.58986e-05
0.167055 0 0.0362229
0.170989 6.77626e-21 0
0.171045 0 0
0.17099 0 0.004644
0.0872301 0 0.147557
0.017467 -4.51751e-21 0.170707
0.000835171 0 0.17191
-0.171009 0 0.0176594
0.0556436 -8.67362e-19 0.162903
0.169303 0 0.0322672
0.169333 5.29396e-23 0.0321454
0.169317 5.29396e-23 0.0322427
0.169429 -2.11758e-21 0.0322323
0.171598 -2.25875e-21 0.0176964
-0.0795497 -1.35525e-20 0.15453
0.170942 2.64698e-23 0.0332669
0.0321247 -9.03502e-21 0.171253
-0.0577178 0 0.164416
-0.166326 0 0.0526363
-0.166351 0 0.0526567
-0.171769 1.05879e-22 0.0315344
0.0793992 -6.77626e-21 0.155604
-0.169068 1.69407e-21 0.0488654
-0.169064 0 0.0488981
0.120034 0 0.129853
-0.0713441 8.67362e-19 0.162074
0.11611 8.67362e-19 0.134549
0.047662 -1.35525e-20 0.17122
0.0714249 8.67362e-19 0.162922
[...]
POINT_DATA 28504
FIELD attributes 1
U 3 28504 float
12.7768 0 0
6.88572 0 0
16.0443 0 0
13.3902 0.618028 -1.61431
11.1014 0 0
10.7467 0 0
11.0516 -0.0942111 0.0822606
11.2536 0 0
16.3912 -1.25416 -3.92423
20 0 0
19.1239 0.371028 -0.969138
20 0 0
20 0 0
19.3593 0.368378 -0.446032
19.4784 0.299574 -0.0466718
0 0 0
2.17386 0.201902 -0.527375
0 0 0
1.62321 0.193778 -0.234626
0 0 0
1.31308 0.209419 -0.473884
4.57139 0 0
13.4952 -0.559499 3.83656
16.6641 -0.679875 -2.35132
17.4218 -0.700082 -0.243449
0 0 0
0 0 0
0 0 0
0.0543268 0.00881756 -0.00493801
0.0649997 0.0165479 -0.0158656
0 0 0
0 0 0
0 0 0
0.103755 0.0168401 -0.00943079
0.107883 0.00024212 0.00897934
19.9975 -0.00188849 0.00121281
19.1714 0 0
14.1959 -0.68702 -5.01047
0 0 0
0 0 0
0.118553 0.0301816 -0.0289372
0 0 0
0.145014 0.0383431 -0.0367382
0 0 0
20 0 0
19.4706 -0.0482666 0.154846
1.85505 -0.397582 -0.242358
1.68298 -0.0872995 -0.367023
0 0 0
0 0 0
20 0 0
0.132861 -0.100045 -0.0122528
0 0 0
0.143401 -0.181689 0.00129931
19.7545 0.140973 -0.0219627
20 0 0
2.39145 -0.860663 -0.00214444
17.0381 -0.656973 -1.41222
0 0 0
20 0 0
0.577415 0.0920903 -0.208387
19.7695 0.121756 -0.0329591
0 0 0
0 0 0
0.568243 0.0948988 -0.234474
0 0 0
15.5766 -0.670924 -4.28583
0.198678 0.0498736 0.0631663
0 0 0
0.15394 0.0379813 0.0421698
0 0 0
0.152384 0.0302446 0.0373458
2.06945 -1.90319 0.187792
2.4043 -0.43521 0.274275
3.00881 -0.738468 0.386363
0 0 0
0 0 0
0.00643178 -0.00710131 -0.000828287
0.0155702 0.000191091 0.00507647
0 0 0
0.0244624 -0.000473157 -0.00316866
0.0397949 -0.00339191 0.0042006
0.0403882 -0.00142811 0.00394596
0 0 0
12.958 -0.628731 3.19457
3.09344 -1.28264 0.471705
0 0 0
0.283325 -0.358973 0.00256711
16.6316 -0.577279 -3.12277
17.2778 -0.597868 -0.413862
13.9989 -0.543552 1.12563
0 0 0
0 0 0
0.7084 -0.239542 0.0627984
0.329742 -0.680009 0.197308
3.36465 -0.693031 0.857375
3.07751 -0.524586 0.893219
0.935199 -0.370948 0.0640567
12.8151 -0.528519 3.06485
4.10986 -0.891448 0.857076
15.0486 -0.617733 -6.0711
16.0002 -0.657533 -4.74276
1.53166 -3.41259 0.741151
3.75963 -1.43997 0.830122
20 0 0
19.9494 0.0240661 0.00796296
20 0 0
13.0778 -0.606998 2.02352
19.9589 0.0165806 0.00383896
20 0 0
19.88 0.0633728 -0.0171549
20 0 0
16.9942 -0.549951 -1.42462
0 0 0
0 0 0
0.126423 0.025092 0.0309834
0 0 0
20 0 0
19.8838 0.0505528 -0.0188021
0.0950099 0.00983676 0.0297782
0.307537 -0.634217 0.184022
12.2941 -0.566058 3.28623
0 0 0
4.06602 -1.09868 0.311655
0 0 0
0.480242 -0.66872 0.192296
0 0 0
0.0575796 -0.00490778 0.00607787
0.0584713 -0.00206752 0.00571269
0.0543897 -0.00674795 -0.0116252
0 0 0
0.0938964 -0.0312303 -0.0337258
0.098611 -0.0318103 -0.0250263
4.8958 -1.39433 0.295844
0 0 0
3.44579 -3.45858 0.722826
16.3615 -0.587989 -3.52524
4.67914 -2.34293 0.625671
5.6116 -1.73816 0.255291
0.0931929 0.0155636 -0.0384542
0 0 0
0.0791868 0.0139021 -0.0371456
2.8841 -4.58565 0.924207
15.4045 -0.600802 -5.44178
11.7718 -0.823533 3.29411
11.7256 -0.350796 3.5882
13.2454 -0.468126 0.764278
17.2338 -0.484671 -0.467343
6.14164 -2.27883 0.24382
4.42186 -1.34452 -0.259848
5.32111 -1.78641 -0.204755
16.7431 -0.532404 -2.0023
6.70866 -2.15516 -0.281655
0 0 0
0.447019 -0.622458 0.178993
16.0645 -0.552675 -4.31181
0 0 0
14.5124 -0.552234 -6.6848
0 0 0
0.43088 -0.459336 0.234356
0 0 0
6.00549 -3.3988 0.581214
0.0751167 0.00777714 0.0235433
0 0 0
7.59837 -2.41825 -0.302523
0.0567441 0.00256568 0.0238083
4.83061 -4.299 1.07224
0.00357533 -0.00084829 0.00230481
0.00123031 0.000249138 -5.41223e-05
0.00310997 0.00120263 0.00265266
0.462655 -0.139117 0.0125619
12.1158 -0.540198 3.73409
19.9732 0.0108134 0.00250366
20 0 0
19.9735 0.0101348 0.00207268
12.9256 -0.59561 1.78767
7.23825 -3.08216 0.280875
5.67876 -1.7145 0.12526
20 0 0
19.9431 0.0247458 -0.00920372
20 0 0
16.9155 -0.477538 -1.14665
20 0 0
19.9413 0.0201544 -0.00690284
0.00481462 -0.000271582 -0.000369375
0 0 0
0.0135408 -0.00737828 -0.0076991
0.0116006 -0.00268883 -0.00718573
6.74006 -2.3201 -0.0288029
16.3126 -0.516506 -3.19748
0.0460494 0.00808448 -0.0216012
0 0 0
0.043306 0.00788519 -0.0225711
8.55885 -2.95008 -0.179845
0 0 0
0.00249199 0.000803788 -0.000813391
0.00576169 -0.000138066 -0.00127595
0 0 0
0.00565307 -0.0012267 -0.00525675
0.010977 -0.00598128 -0.00624136
0 0 0
15.1241 -0.541301 -5.76318
7.92367 -2.77024 -0.152441
0.668747 -0.306322 -0.358563
3.68916 -5.16239 1.49857
6.91716 -4.34891 1.40704
8.8811 -3.15287 -0.13804
13.5838 -0.412119 0.608449
13.0124 -0.715551 2.72922
17.0675 -0.437841 -0.353997
6.13634 -1.39838 0.592162
8.17832 -3.91727 0.722961
16.5589 -0.450032 -1.91779
3.10661 -2.07932 -1.60488
6.79972 -2.29032 0.350315
10.9493 -0.319929 4.31344
8.12191 -3.03942 0.0283855
15.8942 -0.524437 -4.53647
9.86596 -3.66217 0.0796383
20 0 0
13.4473 -0.547155 1.56442
0 0 0
0.00909725 -0.00197407 -0.00845947
0 0 0
0.0176648 -0.00962544 -0.010044
0.0155437 -0.00315705 -0.0075645
0.0194061 -0.0128264 -0.0130909
0.0214965 -0.0106303 -0.0119517
0 0 0
13.4141 -0.578383 5.1275
9.2579 -3.45647 -0.0632468
9.76252 -3.60041 0.0599122
14.1607 -0.544609 -7.26022
0.819464 -0.375358 -0.439373
0 0 0
0.0986118 -0.105124 0.0536352
2.59829 -0.826695 -1.46933
0 0 0
0 0 0
0.196519 -0.166794 0.0751383
20 0 0
19.9671 0.0112959 -0.00386883
19.9947 -0.00333444 0.000599162
20 0 0
13.6176 -0.530927 1.4917
16.8002 -0.419665 -0.994397
20 0 0
19.9665 0.00952751 -0.00326863
0 0 0
0.0532742 0.0206013 0.0454404
0 0 0
0 0 0
0.0317117 0.0172925 0.0178157
15.0162 -0.526027 -5.99674
0 0 0
13.5306 -0.560985 2.27061
7.07219 -5.11664 1.43357
7.61058 -3.29207 0.207366
16.3093 -0.453333 -2.7307
10.1216 -3.79798 0.0022592
9.89519 -4.22052 0.78905
13.3811 -0.624771 3.89871
8.54028 -3.67383 0.15526
0.0103902 -0.000191724 0.00478756
0 0 0
2.88564 -0.0884501 1.26751
0 0 0
3.09371 -1.4216 -1.65568
0.181458 -0.119934 -0.122407
15.5547 -0.491841 -4.74067
0.199978 -0.0988925 -0.111184
12.1272 -0.365476 5.32754
0.174982 -0.076772 -0.08179
0 0 0
0.26918 -0.253971 -0.112848
0.297639 -0.184341 -0.17142
0.111679 -0.0411639 -0.00856429
5.57706 -6.38356 1.81843
0.0974114 -0.0375609 -0.00916831
0.0542953 -0.0233663 -0.0086925
10.209 -3.9962 0.482175
0.105543 -0.0641044 -0.0107495
0.104455 -0.0609783 -0.0104124
0 0 0
9.16502 -3.81669 0.226021
3.70778 -2.11123 -1.85488
16.9735 -0.385542 -0.300187
0.00568575 -0.00145343 -0.00296893
0.00652289 -0.00165534 -0.0035741
13.9096 -0.389776 0.554991
16.5423 -0.406346 -1.578
0 0 0
10.4888 -3.99111 0.339458
13.9456 -0.640693 2.3456
0 0 0
13.7111 -0.486731 -6.29946
0 0 0
0.0451676 0.0342633 -0.0516368
7.39756 -3.80737 0.166964
0.103089 -0.068136 -0.069541
0 0 0
0.0949612 -0.0331878 -0.0388522
0.0827673 -0.0366222 0.00251361
0 0 0
0.153352 -0.144688 -0.0642899
8.14776 -4.09598 0.266968
11.1572 0.0100363 6.14882
0 0 0
0.048675 -0.0249173 -0.0216388
16.2176 -0.434903 -2.99603
12.9241 -0.599423 5.41794
0 0 0
0.05967 -0.0209705 -0.0280815
0 0 0
0 0 0
0.0352102 -0.00910571 -0.0261114
0.314896 -0.267266 0.1204
0 0 0
0 0 0
0.312358 -0.158196 0.16916
9.37846 -3.81925 0.454613
10.3525 -4.59331 1.42407
8.24258 -5.51092 2.33748
8.67426 -4.10934 0.378184
15.1229 -0.481596 -5.39144
10.2876 -4.28561 1.12533
13.4703 -0.507178 -7.80118
2.9335 -0.667854 -1.67143
0 0 0
0.00126496 -0.000192362 0.000475143
0.0927822 -0.0424162 0.00985875
19.9855 0.00412437 -0.00141496
20 0 0
19.9837 0.00391783 -0.00128488
16.7444 -0.373411 -0.831542
0.0467904 0.00170531 0.0245693
0 0 0
19.9712 -0.0175496 0.0031687
0.0447606 0.00346555 0.0271898
20 0 0
19.9752 -0.0139471 0.00253548
14.138 -0.501181 1.31016
10.5384 -4.12899 0.735255
6.78883 -3.12934 0.686548
0 0 0
16.3375 -0.399207 -2.14314
8.62389 -3.91586 0.589016
12.192 -0.321677 6.04333
12.2787 -0.325626 6.06516
12.2681 -0.32364 6.08106
12.277 -0.325096 6.07959
13.8409 -0.626848 3.70379
3.96883 -1.96086 -2.18913
12.2341 -0.315272 6.20157
7.22157 -3.21092 0.796992
5.53412 -4.9757 -2.14749
0.0223393 -0.0056332 -0.0127404
0.0281837 -0.00651612 -0.0176513
15.6005 -0.443379 -4.13829
9.28728 -3.74612 0.818097
14.0507 -0.49582 -6.88751
14.0488 -0.497252 -6.8903
7.42649 -5.84629 3.22999
5.15858 -3.33837 -2.76708
10.2556 -5.0279 3.35898
7.38418 -3.11721 0.931136
8.23233 -3.57154 0.903154
16.9142 -0.343651 -0.246033
2.29318 -0.437757 -1.75892
14.2161 -0.385117 0.501763
0 0 0
10.317 -4.55473 2.40775
0 0 0
0.0140732 -0.00363948 -0.0104365
16.4905 -0.360389 -1.35715
0 0 0
0.0138717 -0.00363435 -0.0110225
14.5109 -0.619811 2.03334
0 0 0
0.126889 -0.0561448 0.00385357
10.352 -4.20987 1.56888
0.234952 -0.221677 -0.0984989
0 0 0
5.6826 -2.24128 1.11241
0.139755 -0.0893193 -0.0357626
0.130441 -0.0519246 0.145357
16.0911 -0.394576 -2.65564
0 0 0
14.0157 -0.655499 4.93725
0.21024 -0.240206 -0.067555
3.21813 -1.01421 -2.04847
10.7147 -0.00582638 6.78445
5.82481 -2.30575 1.23567
9.13798 -3.68775 1.34912
7.16089 -2.9139 1.08533
15.0049 -0.46539 -5.51637
6.15281 -2.27542 1.34104
0 0 0
4.09125 -1.6498 -2.48434
5.10599 -4.54852 -2.26297
7.93964 -3.30897 1.2816
12.9748 -0.490409 7.2494
13.0797 -0.521848 -8.34208
19.9899 0.00242331 -0.000794741
20 0 0
19.9887 0.00238944 -0.000694067
16.7074 -0.33326 -0.701083
20 0 0
19.9475 -0.0295235 0.00536718
20 0 0
14.57 -0.481641 1.14773
20 0 0
19.951 -0.0261513 0.00488911
0 0 0
0.595331 -0.301509 0.322406
16.3186 -0.356332 -1.79092
6.10274 -2.17937 1.4157
14.5626 -0.622898 3.25079
0 0 0
6.75747 -2.64888 1.26864
13.8418 -0.506145 -6.95735
15.8342 -0.388287 -3.10724
9.43183 -4.86659 4.26244
15.71 -0.396571 -3.44489
0 0 0
0.839036 -0.297014 0.614985
4.67458 -3.51506 -2.75278
2.57426 -0.416259 -2.11409
0 0 0
0.0403251 -0.0224335 0.00305399
0 0 0
10.3053 -4.38107 3.32435
0.0119833 -0.00562404 0.00438927
0 0 0
4.76515 -5.11791 -1.34971
2.53805 -0.54996 -1.96926
4.88521 -0.990674 1.79107
13.774 -0.578248 5.82937
8.998 -3.65657 2.3234
0.0398783 0.00308754 0.024224
0 0 0
0.0386224 0.0088694 0.0313737
3.05027 -0.723522 -2.16349
5.68048 -1.98625 1.43838
7.71745 -3.10677 1.81358
14.6584 -0.445176 -5.44785
11.8722 -0.226023 7.48447
5.11889 -0.948854 1.81266
0.244088 -0.13579 0.0184858
0.193642 -0.0997824 0.0194926
4.97152 -4.79822 -2.69245
0.068687 -0.0317175 0.00361214
16.8732 -0.307157 -0.194868
0.0730648 -0.0342911 0.0267625
0.0881227 -0.00989272 0.0499803
0 0 0
16.4958 -0.324352 -1.14775
14.6013 -0.377515 0.462571
0.000759896 -0.000559868 0.000417565
0.0383307 -0.00886213 -0.0240064
0 0 0
14.9954 -0.575592 1.78193
0.0386615 -0.0120107 -0.027438
3.76089 -2.20457 -2.65258
16.1936 -0.347178 -2.01413
6.45323 -2.41244 1.53404
13.1895 -0.477074 -7.37321
14.7032 -0.647305 4.35698
3.53233 0.313855 2.33141
5.08959 -0.962991 1.77323
15.5335 -0.379551 -3.62911
5.14471 -1.70452 1.46422
9.06648 -4.92026 5.88263
4.49692 -4.19507 -3.05157
13.3899 -0.533336 6.79147
3.97945 0.369444 2.28831
10.0634 -4.1864 5.37254
3.44648 -4.05729 -1.2343
0 0 0
0.121244 -0.0151599 -0.100751
9.19778 -3.64894 3.98634
0 0 0
0.119162 -0.0262241 -0.105953
0 0 0
0.0860329 -0.0257124 -0.0900315
7.7465 -2.99163 2.6579
2.41342 -0.634315 -2.04537
19.9925 0.00158485 -0.000460357
20 0 0
19.9917 0.00170727 -0.000461727
16.7108 -0.299913 -0.605313
20 0 0
19.9411 -0.0314777 0.00588491
0 0 0
14.2668 -0.428836 -5.67316
20 0 0
0.0645437 -0.0302919 0.0236413
14.9933 -0.461544 1.02873
0.0778687 -0.0087416 0.0441645
20 0 0
19.9459 -0.0281148 0.00524263
0 0 0
0.0316518 -0.00636161 0.00998057
0.0134417 -0.0200673 0.0113041
16.3819 -0.319252 -1.4353
16.3817 -0.319461 -1.43594
0.0786066 0.0406192 0.0641821
0 0 0
9.87459 0.372336 8.23161
4.81498 -0.900434 1.69067
4.27865 0.242974 2.19316
15.0481 -0.60444 2.93839
16.0781 -0.335871 -2.15584
6.38077 -2.22647 1.9694
2.89211 -1.23447 -2.44437
3.75538 -4.67689 -2.39772
1.4704 -1.70887 0.744842
15.9076 -0.345146 -2.56008
0 0 0
14.2971 -0.598689 5.33452
4.36063 1.34475 2.24522
12.0176 -0.385308 8.63605
11.8187 -0.453456 -8.53704
3.40138 -2.21506 -2.91171
5.03369 -1.55512 1.57294
4.30887 0.0466519 2.0405
8.35731e-05 0.00012376 -0.000158479
9.195e-05 7.22115e-05 -2.18794e-05
0.00833275 -0.00632833 0.00113746
0 0 0
15.1033 -0.380619 -4.10032
2.52198 -4.3929 -1.43394
1.30066 -0.460426 0.953341
0 0 0
12.8468 -0.480513 -7.41728
4.71749 1.35936 2.28409
3.44204 -4.07511 -2.73956
12.784 -0.459234 7.61725
4.78209 -0.799257 1.6869
16.8787 -0.27612 -0.177265
16.5435 -0.295221 -1.03301
15.0281 -0.363845 0.415946
0 0 0
9.00605 -3.6156 5.88322
15.3993 -0.557752 1.61837
8.75235 -3.05271 4.68504
16.2929 -0.312017 -1.5499
15.0848 -0.645718 4.05782
0 0 0
1.34377 -0.293211 1.17129
4.73725 2.28996 2.08249
1.77529 -0.666002 -1.84199
0 0 0
0.0457124 0.0104976 0.037133
6.7599 -2.0956 2.98387
0 0 0
0.0600303 0.0138431 0.0551745
13.8619 -0.429019 -5.87068
4.78665 1.16809 2.26338
3.01627 -5.29133 -2.39567
4.13175 0.045442 1.83023
15.5927 -0.342181 -3.07778
1.27825 -0.972152 0.169191
10.8273 0.0232522 8.75174
5.07069 -1.27764 1.85851
2.1171 -0.832746 -2.14563
2.66038 -1.27124 -2.61103
13.9924 -0.569048 6.17853
5.17663 2.44663 2.28499
0.0506248 -0.0157272 -0.0359284
0 0 0
0.0513139 -0.0172874 -0.0401582
0.0157425 -0.0235023 0.0132391
0 0 0
0.0920065 0.0475436 0.0751232
0 0 0
2.78063 -2.76218 -2.72677
0.0469483 0.0385252 0.112756
-0.00247708 0.0744059 0.0152559
4.5962 -0.597874 1.72375
0 0 0
0.0196604 0.0407789 0.000390195
0.0639613 -0.0529857 0.0383542
0.0989351 0.148657 -0.0711707
0.0147286 0.0837683 -0.00305644
0 0 0
0 0 0
19.9971 0.000588512 -0.000161325
16.7323 -0.276939 -0.560652
12.1581 -0.457095 -7.64045
14.9614 -0.377789 -4.14345
-0.119644 2.66029 0.645466
20 0 0
19.9413 -0.0305048 0.00568831
1.94456 -3.36802 -0.961288
20 0 0
15.4269 -0.449566 0.916707
20 0 0
19.9469 -0.0276364 0.00485356
4.57827 0.960301 2.15066
11.7198 -0.363367 8.86111
16.413 -0.297225 -1.29391
15.4811 -0.59561 2.67137
9.76429 0.466856 9.09705
5.4088 2.34034 2.37795
0 0 0
2.7526 -4.41194 -2.71176
16.0007 -0.310748 -2.1442
4.13919 0.0694225 1.73763
14.813 -0.61212 4.81821
0.200716 0.353346 -0.434262
5.59064 1.60221 2.27958
0 0 0
0.6313 1.02945 -0.435806
8.5244 -3.37668 6.79961
8.66889 -2.58096 6.53453
0.434532 0.743496 -0.601172
13.4018 -0.431073 -6.21142
7.4962 -1.96289 4.80891
0 0 0
1.19622 -0.356467 0.69948
15.4027 -0.338392 -3.23759
5.13702 2.01565 2.44177
5.59075 -1.10749 2.86124
1.94323 -0.874993 -2.43125
0 0 0
0.121206 0.0279504 0.111402
2.03113 -4.41816 -1.86373
0 0 0
0 0 0
0.106726 0.0241991 0.117408
4.36501 0.86283 1.98612
13.2217 -0.491639 7.16152
0 0 0
0.0408236 -0.0223387 -0.0415378
6.12284 1.95539 2.47459
0 0 0
0.0465315 -0.0334489 -0.0529271
0.0165908 -0.0125996 -0.0144541
0 0 0
4.71001 -0.264793 2.09971
10.6288 -0.0113435 9.22773
15.4811 -0.360117 0.355975
2.10909 -1.69787 -2.59044
15.8508 -0.545048 1.4286
10.768 -0.466372 -8.59723
15.5915 -0.638377 3.56744
14.5031 -0.378026 -4.50949
4.1347 0.403512 1.74363
2.25263 -2.90298 -2.69126
1.00814 -3.33823 -0.658035
5.89236 0.359825 2.16031
4.74108 1.732 2.29625
0.959401 1.75513 0.487813
6.44213 2.06085 2.57122
15.8347 -0.299342 -2.39827
11.8838 -0.472288 -7.51715
14.5967 -0.600504 5.46366
3.80429 6.10578 -3.97783
1.90051 -3.93361 -2.23622
4.20395 0.95346 1.86095
1.17935 -0.257334 1.02798
0 0 0
6.52702 1.17855 2.57744
7.7659 -1.82837 6.58548
12.5889 -0.443181 8.13884
0.563141 3.47163 -0.245699
1.50342 -0.580208 0.418438
15.2238 -0.334967 -3.32303
0 0 0
13.0973 -0.426746 -6.08135
6.985 -1.09305 5.19619
0.0178891 -0.0128595 -0.0203479
6.33916 1.9893 2.60574
0 0 0
0.00634197 -0.00481632 -0.0055252
0.00746013 -0.00558003 -0.00834717
0.020787 -0.0230123 -0.0288111
20 0 0
19.9463 -0.0279273 0.00490465
0.0167784 -0.0198261 -0.0252293
20 0 0
15.8597 -0.4459 0.77466
20 0 0
19.9512 -0.0262618 0.00400814
16.5658 -0.269962 -0.950417
1.32367 -4.59919 -1.66463
0.962924 -0.00280917 1.01726
0 0 0
0 0 0
9.04743 0.432657 9.96329
16.907 -0.251257 -0.180736
15.8917 -0.600349 2.37723
4.45565 1.60256 2.08933
5.1965 0.01558 3.19424
0 0 0
0.0893846 -0.0740464 0.0535991
7.37843 1.81566 2.66926
0 0 0
15.2755 -0.636785 4.3468
-0.0356344 -0.0470572 -0.0128702
16.0933 -0.279616 -1.87085
0 0 0
1.84197 -1.66322 -2.86297
4.04969 0.901653 1.96006
20 0 0
0.0717915 -0.0241863 -0.056184
0 0 0
0.0923699 -0.037639 -0.0780729
14.3508 -0.374064 -4.47709
10.7365 -0.424285 9.98236
2.02762 1.43693 0.889744
0 0 0
15.6695 -0.299825 -2.55853
1.4282 -2.58566 -0.440395
0.155222 0.233231 -0.111662
0.311495 0.128842 -0.0171654
0 0 0
0.13181 0.122519 -0.0671034
3.99873 1.30794 1.8486
11.2401 -0.474122 -7.60316
1.59591 -2.88415 -2.43625
0.321965 0.260619 -0.160932
0.237996 0.326085 -0.161435
0 0 0
0 0 0
6.02241 1.93708 2.52345
0.90131 1.46975 -0.622202
13.9589 -0.552405 6.41186
7.79327 2.0667 2.79818
0.002894 -0.0012735 -0.00467115
0.106043 -0.0878466 0.0635885
0.162724 0.00754037 0.102654
0.0479198 0.00627466 0.00332439
3.24393 5.28407 -2.28026
-0.0423667 -0.0559475 -0.0153017
0 0 0
-0.0120603 -0.105971 0.0441473
1.27533 -3.8273 -1.87519
4.10573 1.75068 1.89431
15.91 -0.360317 0.295601
5.64795 0.428195 2.58306
16.2481 -0.548232 1.15842
14.9792 -0.332704 -3.48973
1.79714 -0.124829 0.711526
12.8003 -0.434203 -6.0703
0 0 0
12.0512 -0.458193 8.65034
15.8772 -0.67415 3.36166
0 0 0
0.129867 0.029446 0.142865
2.23557 2.86279 0.0429185
7.65312 2.13677 2.8852
0 0 0
16.78 -0.242838 -0.487854
0 0 0
6.89536 -0.545246 6.75326
0.118813 0.0263182 0.159334
7.6252 -1.36791 7.55303
5.83904 0.222639 4.93113
16.0523 -0.267304 -1.92722
1.40885 -3.68531 -1.32755
1.68617 -1.25022 -2.78817
15.0288 -0.637182 5.02145
5.5546 2.03277 2.35297
6.80243 1.18549 2.91199
4.2946 1.28105 2.93701
9.80923 -0.119747 10.2029
9.72368 -0.514103 -8.42467
1.39713 -2.0114 -2.60637
3.69644 1.81997 2.118
2.3124 1.24747 0.684595
13.9898 -0.373141 -4.5997
5.7056 8.14485 -4.74426
15.5772 -0.29659 -2.56192
13.516 -0.529863 7.16044
3.61904 -1.26635 2.20069
19.9981 -0.000658124 -0.000102919
7.66069 1.65646 3.11483
7.22567 2.2728 2.82243
20 0 0
19.954 -0.0247762 0.00378141
20 0 0
3.63852 2.20406 1.75509
16.6061 -0.440261 0.729214
1.03993 -3.0545 -2.34647
19.992 -0.0115287 0.000926729
11.071 -0.492112 -7.40337
3.23471 3.97056 -0.80552
16.3792 -0.581008 2.08556
16.3103 -0.252242 -1.42314
15.7499 -0.631663 3.85439
4.87613 2.29426 2.15016
11.392 -0.444538 9.29368
0 0 0
0.705004 0.570674 -0.35239
1.01234 -3.19176 -1.645
0.519469 0.711738 -0.352361
14.7623 -0.32721 -3.59855
2.03433 -0.0867033 0.617434
4.93749 -0.0952266 2.87271
0 0 0
0.343523 0.405154 -0.277718
0 0 0
2.98296 2.59013 0.319649
-0.0471715 -0.0622926 -0.017037
0.837773 0.825298 -0.593043
12.514 -0.43098 -5.94764
-0.0134211 -0.117929 0.0491287
0 0 0
15.9034 -0.272174 -2.0922
0.549721 0.980657 -0.494749
0 0 0
0 0 0
7.94411 1.96866 3.1716
0 0 0
0 0 0
8.38559 0.37128 11.0569
14.5558 -0.615151 5.69978
2.03774 3.04164 -1.38696
0.45184 -0.00131817 0.477338
0 0 0
6.27392 0.265573 6.40263
0 0 0
6.95819 0.886418 3.29288
0.0121696 -0.0143802 -0.0182992
0 0 0
0.000915072 -0.00259814 -0.00190739
0.00761813 -0.02163 -0.0158793
0 0 0
0.00601971 -0.0237946 -0.0142575
5.21884 1.235 4.93033
0.340668 0.124057 0.37177
0 0 0
6.44277 2.50589 2.61383
4.74549 7.07841 -3.24502
3.71471 2.17346 3.01928
0 0 0
0.0995074 -0.0405474 -0.0841057
0 0 0
0 0 0
0.0965857 -0.0388795 -0.0969892
2.44175 1.06586 0.798746
9.67726 -0.565637 10.6248
13.9542 -0.364284 -4.36817
15.3353 -0.294494 -2.79673
12.9519 -0.5443 7.65204
1.04454 -2.02165 -2.43586
2.80674 2.88472 1.8409
3.63862 4.02695 -0.829445
8.18149 1.52665 3.48242
1.77753 -1.9013 0.167535
10.1759 -0.491379 -7.61072
7.78896 2.2518 3.09217
3.85226 2.81104 1.96262
15.4839 -0.667399 4.37909
0.684785 -2.8003 -2.06814
-0.013511 -0.118719 0.0494578
0.07985 -0.0183206 0.102693
0 0 0
0 0 0
-0.0333157 -0.103675 0.00423359
14.6226 -0.323353 -3.55734
0 0 0
11.0494 -0.548469 9.52635
3.23671 2.44841 0.187433
5.79784 10.9502 -5.48961
3.76358 -0.738087 2.35005
0.343145 -3.32764 -1.6036
0 0 0
0.115134 0.0255034 0.154401
5.2853 2.84214 2.30467
12.2333 -0.441133 -5.96057
0 0 0
0 0 0
0.111454 0.0270359 0.162703
14.1993 -0.638868 6.23721
8.6809 1.93667 3.5023
8.43483 -0.517883 -8.64846
5.8134 0.444305 2.9804
4.28586 5.73707 -2.2697
16.9571 -0.20757 -0.138836
8.9659 -0.216773 10.7603
16.6783 -0.217819 -0.732938
17.4548 -0.485355 1.48242
0.809906 -2.30037 -0.987176
5.03046 1.70154 5.87612