# vtk DataFile Version 2.0
track0
ASCII
DATASET POLYDATA
POINTS 19274 float
-1.001 -0.05 0.316889
-1.0008 -0.0500006 0.316891
-1.00059 -0.0500012 0.316892
-1.00039 -0.0500018 0.316893
-1.00019 -0.0500024 0.316894
-0.999982 -0.050003 0.316895
-0.987481 -0.0500399 0.316959
-0.97498 -0.0500787 0.317024
-0.962479 -0.0501183 0.31709
-0.949978 -0.0501589 0.317156
-0.937477 -0.0502004 0.317223
-0.924975 -0.0502413 0.31729
-0.912473 -0.0502844 0.317357
-0.89997 -0.0503294 0.317425
-0.887468 -0.0503761 0.317493
-0.874966 -0.0504246 0.317561
-0.862462 -0.0504731 0.317631
-0.849959 -0.0505232 0.3177
-0.837455 -0.0505758 0.31777
-0.824951 -0.0506311 0.31784
-0.812448 -0.0506891 0.317911
-0.79995 -0.050749 0.317982
-0.787453 -0.0508125 0.318053
-0.774955 -0.0508798 0.318124
-0.762458 -0.0509509 0.318195
-0.749961 -0.0510258 0.318266
-0.737547 -0.0511014 0.318337
-0.725134 -0.0511789 0.318408
-0.712721 -0.0512618 0.318479
-0.700308 -0.0513502 0.318549
-0.687895 -0.0514441 0.318618
-0.681894 -0.051492 0.318652
-0.675893 -0.0515417 0.318685
-0.669892 -0.0515936 0.318718
-0.663891 -0.0516474 0.318751
-0.657828 -0.0517039 0.318784
-0.651663 -0.0517634 0.318817
-0.645498 -0.051825 0.31885
-0.639332 -0.0518887 0.318883
-0.633167 -0.0519546 0.318916
-0.627001 -0.0520214 0.318948
-0.61425 -0.0521607 0.319015
-0.601499 -0.0523059 0.319081
-0.588748 -0.0524664 0.319146
-0.575997 -0.0526423 0.31921
-0.563245 -0.0528339 0.319272
-0.550725 -0.0530335 0.319332
-0.538206 -0.053255 0.319393
-0.525687 -0.0535029 0.319451
-0.513168 -0.0537775 0.319506
-0.500645 -0.0540793 0.319559
-0.488224 -0.0543965 0.319611
-0.475804 -0.054758 0.319665
-0.463386 -0.0551769 0.319716
-0.45097 -0.0556543 0.319763
-0.438538 -0.0561925 0.319808
-0.432347 -0.0564933 0.319833
-0.426157 -0.0568072 0.319861
-0.419968 -0.0571503 0.319888
-0.413781 -0.0575236 0.319915
-0.407583 -0.0579285 0.31994
-0.401362 -0.0583692 0.319963
-0.395145 -0.0588561 0.31999
-0.388933 -0.059397 0.320016
-0.382726 -0.0599928 0.320041
-0.376477 -0.0606483 0.320066
-0.371915 -0.0611672 0.320085
-0.367359 -0.0617351 0.320108
-0.362809 -0.0623562 0.320132
-0.358269 -0.0630393 0.320159
-0.357179 -0.063217 0.320165
-0.354776 -0.0636156 0.320179
-0.352375 -0.0640277 0.320192
-0.349977 -0.0644532 0.320205
-0.347581 -0.064892 0.320218
-0.345163 -0.0653488 0.32023
-0.338842 -0.0665788 0.320264
-0.332545 -0.0679219 0.320292
-0.326279 -0.069402 0.320318
-0.320045 -0.071015 0.320335
-0.313555 -0.0728253 0.320342
-0.310349 -0.0737691 0.320339
-0.307142 -0.0747118 0.320336
-0.303938 -0.0756639 0.32033
-0.30074 -0.0766351 0.320321
-0.297521 -0.0776319 0.320309
-0.29677 -0.0778735 0.320306
-0.29602 -0.078116 0.320302
-0.29527 -0.078358 0.320298
-0.294519 -0.0785993 0.320293
-0.293767 -0.0788402 0.320288
-0.291415 -0.0795907 0.320271
-0.289063 -0.0803393 0.32025
-0.286711 -0.081086 0.320227
-0.284358 -0.0818308 0.320202
-0.28201 -0.082571 0.320176
-0.278828 -0.0835667 0.320137
-0.275632 -0.084521 0.320091
-0.272426 -0.0854357 0.320039
-0.269209 -0.0863157 0.31998
-0.266105 -0.0871352 0.319919
-0.262998 -0.087928 0.319855
-0.259881 -0.0886797 0.319783
-0.256753 -0.0893838 0.319707
-0.253613 -0.0900305 0.319629
-0.250592 -0.0905975 0.319549
-0.247522 -0.0910706 0.319466
-0.244446 -0.0914946 0.31938
-0.241361 -0.0918606 0.319291
-0.238271 -0.0921695 0.319201
-0.235286 -0.0924126 0.319112
-0.232058 -0.092603 0.319015
-0.228829 -0.092759 0.318917
-0.225598 -0.092872 0.318818
-0.222365 -0.0929411 0.318718
-0.219138 -0.0929648 0.318618
-0.215946 -0.092937 0.318516
-0.212753 -0.0928857 0.318415
-0.209561 -0.0928075 0.318313
-0.20637 -0.0927043 0.318211
-0.203165 -0.0925748 0.318107
-0.20011 -0.0924293 0.318006
-0.197055 -0.0922788 0.317905
-0.194001 -0.0921201 0.317804
-0.190948 -0.0919529 0.317702
-0.18789 -0.0917754 0.317599
-0.184891 -0.0915878 0.317497
-0.181892 -0.0913829 0.317396
-0.178894 -0.0911638 0.317295
-0.175898 -0.09093 0.317193
-0.172894 -0.0906803 0.31709
-0.169846 -0.0904225 0.316985
-0.166799 -0.0901512 0.316882
-0.163753 -0.0898796 0.316777
-0.160707 -0.0896077 0.31667
-0.157657 -0.0893352 0.316563
-0.154537 -0.0890569 0.31645
-0.151419 -0.0887616 0.316338
-0.1483 -0.0884703 0.316225
-0.145181 -0.0881841 0.316112
-0.142062 -0.0879031 0.315998
-0.138604 -0.087608 0.315878
-0.135143 -0.0873381 0.315762
-0.131681 -0.087084 0.315643
-0.128219 -0.0868462 0.315522
-0.124775 -0.0866319 0.315403
-0.121532 -0.0864387 0.315299
-0.118287 -0.0862958 0.315184
-0.115041 -0.0861738 0.315059
-0.111794 -0.0860706 0.314923
-0.10857 -0.0859875 0.314779
-0.105314 -0.0859196 0.314618
-0.102058 -0.0858799 0.31444
-0.0988039 -0.0858535 0.314247
-0.0955502 -0.0858403 0.314036
-0.0922853 -0.0858415 0.313804
-0.0890688 -0.0858507 0.313545
-0.0858541 -0.0858712 0.313267
-0.0826411 -0.0858962 0.312969
-0.0794298 -0.0859282 0.312654
-0.0779984 -0.0859456 0.312505
-0.0776415 -0.0859503 0.312467
-0.0772845 -0.0859551 0.312429
-0.0769276 -0.08596 0.312391
-0.0765707 -0.085965 0.312352
-0.0762138 -0.0859702 0.312313
-0.0734196 -0.0860111 0.312007
-0.070627 -0.0860612 0.311688
-0.0678362 -0.0861217 0.311355
-0.0650473 -0.0861926 0.311008
-0.0622475 -0.0862721 0.310643
-0.0593137 -0.0863741 0.310238
-0.0563821 -0.0864915 0.30982
-0.0534532 -0.0866392 0.309394
-0.0505276 -0.0868165 0.308955
-0.0475567 -0.0870281 0.308496
-0.0443131 -0.0873281 0.307972
-0.041077 -0.0876663 0.307425
-0.0378531 -0.0880765 0.306856
-0.0346468 -0.0885818 0.306264
-0.0312866 -0.0892412 0.305539
-0.0283065 -0.0899742 0.304748
-0.0253879 -0.0908117 0.30384
-0.0224521 -0.0916507 0.30299
-0.0203525 -0.0922395 0.302475
-0.0185791 -0.0927267 0.302139
-0.0168151 -0.0932728 0.301847
-0.0150607 -0.0938471 0.301552
-0.0133278 -0.0944797 0.301249
-0.0114024 -0.0953831 0.300878
-1.001 -0.05 0.369521
-1.0008 -0.0500006 0.369522
-1.00059 -0.0500012 0.369524
-1.00039 -0.0500018 0.369525
-1.00019 -0.0500023 0.369526
-0.999983 -0.0500029 0.369527
-0.987482 -0.0500391 0.369603
-0.974981 -0.0500782 0.36968
-0.96248 -0.0501182 0.369757
-0.949978 -0.0501593 0.369835
-0.937477 -0.0502013 0.369914
-0.924975 -0.0502415 0.369994
-0.912473 -0.0502841 0.370074
-0.899971 -0.0503286 0.370156
-0.887469 -0.0503748 0.370238
-0.874967 -0.0504228 0.370321
-0.862469 -0.0504705 0.370406
-0.849972 -0.0505208 0.37049
-0.837474 -0.0505736 0.370576
-0.824977 -0.0506291 0.370663
-0.812479 -0.0506871 0.37075
-0.800059 -0.0507453 0.370838
-0.787639 -0.0508068 0.370926
-0.775218 -0.0508718 0.371015
-0.762798 -0.0509405 0.371105
-0.750377 -0.0510129 0.371196
-0.738235 -0.0510852 0.371285
-0.726092 -0.0511613 0.371374
-0.713949 -0.0512425 0.371465
-0.701806 -0.051329 0.371556
-0.689663 -0.0514207 0.371647
-0.676973 -0.051519 0.371743
-0.664282 -0.051623 0.37184
-0.651591 -0.0517349 0.371938
-0.638901 -0.0518547 0.372037
-0.62621 -0.0519826 0.372138
-0.613705 -0.0521154 0.372238
-0.601201 -0.0522602 0.37234
-0.588696 -0.0524186 0.372443
-0.576192 -0.0525907 0.372548
-0.563687 -0.0527766 0.372654
-0.551184 -0.0529687 0.372762
-0.53868 -0.0531727 0.372875
-0.526178 -0.0534012 0.372991
-0.513676 -0.0536544 0.373111
-0.50117 -0.0539329 0.373235
-0.488719 -0.0542341 0.373362
-0.476268 -0.0545836 0.373498
-0.46382 -0.0549848 0.373642
-0.451373 -0.0554387 0.373796
-0.438911 -0.055947 0.373959
-0.43269 -0.0562251 0.374048
-0.42647 -0.0565191 0.374143
-0.420252 -0.0568384 0.374243
-0.414035 -0.0571838 0.374347
-0.407807 -0.0575562 0.374455
-0.40156 -0.0579574 0.374568
-0.395316 -0.0584027 0.374689
-0.389075 -0.0588931 0.374816
-0.382838 -0.0594294 0.374951
-0.376566 -0.0600158 0.375094
-0.375296 -0.0601433 0.375125
-0.374027 -0.060274 0.375157
-0.372758 -0.0604078 0.37519
-0.37149 -0.0605461 0.375223
-0.370533 -0.0606545 0.375249
-0.36594 -0.0611846 0.375374
-0.361351 -0.0617552 0.375503
-0.356767 -0.0623663 0.375635
-0.35219 -0.0630177 0.375771
-0.350379 -0.0632924 0.375826
-0.349341 -0.0634538 0.375858
-0.348304 -0.0636174 0.37589
-0.347267 -0.0637831 0.375923
-0.34623 -0.0639509 0.375956
-0.34519 -0.0641215 0.375988
-0.338825 -0.0651773 0.376192
-0.332482 -0.0663616 0.376396
-0.326166 -0.0676788 0.376604
-0.319878 -0.0691259 0.376813
-0.313297 -0.0707816 0.377035
-0.310108 -0.0716266 0.37713
-0.306922 -0.0724831 0.377216
-0.303739 -0.0733544 0.377295
-0.300561 -0.0742402 0.377368
-0.29735 -0.0751615 0.377435
-0.294639 -0.0759634 0.377489
-0.291931 -0.0767766 0.377533
-0.289223 -0.0775945 0.377567
-0.286518 -0.0784192 0.377593
-0.284081 -0.079169 0.377608
-0.283573 -0.0793263 0.37761
-0.283065 -0.0794838 0.377611
-0.282558 -0.0796414 0.377612
-0.28205 -0.0797992 0.377613
-0.281542 -0.0799572 0.377614
-0.278203 -0.0809969 0.377616
-0.274859 -0.0820221 0.377602
-0.271511 -0.0830341 0.377572
-0.26816 -0.0840337 0.377524
-0.26484 -0.0850037 0.377462
-0.261667 -0.0859228 0.377388
-0.258477 -0.0867768 0.377295
-0.255276 -0.087584 0.377184
-0.252064 -0.0883454 0.377056
-0.248945 -0.0890205 0.37691
-0.245854 -0.0896644 0.376749
-0.242752 -0.0902494 0.376569
-0.23964 -0.0907761 0.376374
-0.236522 -0.0912571 0.376166
-0.233448 -0.091685 0.375948
-0.231073 -0.0919594 0.375768
-0.228697 -0.092218 0.375583
-0.226317 -0.0924442 0.375395
-0.223935 -0.0926377 0.375204
-0.221851 -0.0927779 0.375033
-0.22131 -0.0928076 0.374988
-0.22077 -0.0928357 0.374942
-0.220229 -0.0928621 0.374897
-0.219688 -0.0928868 0.374851
-0.219148 -0.0929098 0.374805
-0.216025 -0.0930343 0.37454
-0.212901 -0.0931228 0.374276
-0.209776 -0.0931756 0.374014
-0.20665 -0.0931916 0.373755
-0.203546 -0.0931697 0.373498
-0.200424 -0.0931173 0.373246
-0.197303 -0.0930374 0.372995
-0.194182 -0.0929348 0.372745
-0.191062 -0.0928087 0.372498
-0.187942 -0.0926585 0.372254
-0.184863 -0.0925017 0.372016
-0.181785 -0.0923195 0.371776
-0.178709 -0.0921171 0.371537
-0.175634 -0.0918938 0.371298
-0.172547 -0.0916479 0.371058
-0.169467 -0.091402 0.370831
-0.166389 -0.0911368 0.370593
-0.163312 -0.0908651 0.370356
-0.160235 -0.0905869 0.37012
-0.157146 -0.0903054 0.369886
-0.154056 -0.0900268 0.369658
-0.150969 -0.0897201 0.369426
-0.147882 -0.0894082 0.369194
[...]
POINT_DATA 19274
 FIELD attributes 1
U 3 19274 float
19.1808 	-0.0565033 	0.0988203 19.1805 	-0.0565289 	0.0988402 19.1802 	-0.0565545 	0.0988602 19.1799 	-0.05658 	0.0988802 19.1796 	-0.0566056 	0.0989001 19.1793 	-0.0566312 	0.0989201 19.1651 	-0.0594159 	0.100092 19.1516 	-0.0607568 	0.100665 19.1382 	-0.0620987 	0.101238 19.1247 	-0.0634414 	0.101811 19.1092 	-0.062633 	0.101915 19.0887 	-0.0658195 	0.102666 19.0687 	-0.0684906 	0.103313 19.0487 	-0.0711636 	0.10396 19.0287 	-0.0738387 	0.104608 19.0084 	-0.073837 	0.105038 18.9842 	-0.0759457 	0.105519 18.9609 	-0.0798537 	0.105969 18.9376 	-0.0837658 	0.10642 18.9144 	-0.0876821 	0.10687 18.8913 	-0.09053 	0.107181 18.8632 	-0.0958154 	0.107135 18.8354 	-0.101418 	0.107178 18.8077 	-0.107027 	0.107221 18.78 	-0.112641 	0.107265 18.7515 	-0.114092 	0.107241 18.7157 	-0.116887 	0.106619 18.6817 	-0.124823 	0.105935 18.6478 	-0.132773 	0.105251 18.6138 	-0.140737 	0.104567 18.58 	-0.148291 	0.103815 18.5585 	-0.153999 	0.102945 18.5373 	-0.160059 	0.102155 18.516 	-0.166124 	0.101364 18.4948 	-0.172195 	0.100574 18.4733 	-0.178333 	0.099775 18.4515 	-0.184432 	0.098993 18.4296 	-0.190536 	0.0982107 18.4078 	-0.196647 	0.0974282 18.3846 	-0.199231 	0.0967159 18.3611 	-0.200606 	0.0962321 18.2969 	-0.20834 	0.0946583 18.2394 	-0.229572 	0.0926488 18.182 	-0.250876 	0.0906366 18.1245 	-0.272251 	0.0886218 18.066 	-0.288047 	0.0873306 17.979 	-0.318113 	0.0866224 17.8979 	-0.354398 	0.0827101 17.8169 	-0.390809 	0.0787914 17.7359 	-0.427347 	0.0748662 17.6524 	-0.450859 	0.0745439 17.5127 	-0.509737 	0.0757801 17.3932 	-0.586726 	0.0710696 17.2738 	-0.664122 	0.0663426 17.1548 	-0.742643 	0.061697 16.9858 	-0.825246 	0.0673212 16.8966 	-0.85702 	0.0765033 16.8212 	-0.932566 	0.0748084 16.744 	-1.01038 	0.0719066 16.6673 	-1.08863 	0.0689389 16.5867 	-1.17502 	0.0590961 16.4597 	-1.28916 	0.0725731 16.3739 	-1.42577 	0.0690861 16.2894 	-1.56326 	0.0653729 16.2066 	-1.70029 	0.0635814 16.1185 	-1.83345 	0.069437 16.0306 	-1.99802 	0.0789102 15.9693 	-2.18016 	0.0862206 15.8826 	-2.38967 	0.0920654 15.8285 	-2.57923 	0.0912622 15.8175 	-2.62407 	0.0907246 15.7993 	-2.71202 	0.0880195 15.7818 	-2.79984 	0.0852293 15.7651 	-2.88753 	0.0823542 15.7491 	-2.97508 	0.0793944 15.7203 	-3.05929 	0.0843115 15.7766 	-3.36481 	0.0713959 15.7311 	-3.71544 	0.0640314 15.8729 	-4.10729 	0.0453724 16.1943 	-4.51731 	0.0164803 16.5061 	-4.85892 	-0.0141369 16.7386 	-4.92042 	-0.0192281 16.9544 	-5.03859 	-0.0296311 17.1469 	-5.207 	-0.0467409 17.3341 	-5.36755 	-0.0651178 17.5185 	-5.63984 	-0.0788724 17.6112 	-5.69106 	-0.0889967 17.6982 	-5.70769 	-0.09968 17.7837 	-5.71529 	-0.110507 17.8692 	-5.72301 	-0.12133 17.9548 	-5.73086 	-0.132164 18.1842 	-5.788 	-0.158016 18.4159 	-5.84545 	-0.181038 18.6527 	-5.90333 	-0.197829 18.8868 	-5.95527 	-0.214622 19.1069 	-5.97764 	-0.231359 19.5162 	-5.82866 	-0.27977 19.9305 	-5.68576 	-0.32702 20.3338 	-5.56345 	-0.370283 20.6201 	-5.44339 	-0.402622 20.8955 	-5.33171 	-0.433632 21.2946 	-5.13568 	-0.487858 21.6188 	-4.86643 	-0.525541 21.8412 	-4.49829 	-0.546867 22.0723 	-4.14268 	-0.580548 22.3577 	-3.44509 	-0.609117 22.5519 	-3.10797 	-0.630411 22.6247 	-2.68526 	-0.649879 22.703 	-2.26941 	-0.663912 22.7905 	-1.85561 	-0.677148 22.8562 	-1.34824 	-0.68789 22.7361 	-1.0983 	-0.687147 22.6083 	-0.790595 	-0.691584 22.4867 	-0.481011 	-0.696033 22.3862 	-0.164097 	-0.699639 22.2389 	0.193611 	-0.704846 21.9594 	0.353067 	-0.695274 21.7341 	0.532054 	-0.693571 21.5285 	0.696202 	-0.692888 21.3237 	0.861835 	-0.692035 21.1574 	1.00774 	-0.698858 20.8776 	1.02852 	-0.686602 20.6892 	1.07519 	-0.686285 20.5009 	1.12217 	-0.685887 20.311 	1.17964 	-0.681917 20.2125 	1.26375 	-0.686423 19.9635 	1.36408 	-0.673273 19.8238 	1.44903 	-0.669805 19.6854 	1.53621 	-0.669906 19.547 	1.62414 	-0.669906 19.5381 	1.65307 	-0.671717 19.2882 	1.71755 	-0.655881 19.1651 	1.70863 	-0.66022 19.042 	1.69972 	-0.664543 18.9184 	1.69069 	-0.666833 18.872 	1.68318 	-0.68509 18.6026 	1.7619 	-0.666527 18.4613 	1.72401 	-0.667128 18.3204 	1.68099 	-0.666076 18.1795 	1.6376 	-0.665123 18.0427 	1.54004 	-0.62395 17.8134 	1.38904 	-0.597563 17.6486 	1.29544 	-0.604935 17.4841 	1.20073 	-0.612674 17.2948 	1.07661 	-0.597789 17.0406 	1.01507 	-0.547869 16.9605 	0.746574 	-0.598596 16.835 	0.633058 	-0.651369 16.7008 	0.530456 	-0.696662 16.5675 	0.427375 	-0.742843 16.4498 	0.342799 	-0.812266 16.3138 	0.198875 	-0.889425 16.2055 	0.131779 	-0.964759 16.0983 	0.0652117 	-1.04063 16.0102 	-0.00577599 	-1.13949 15.9341 	-0.0459636 	-1.28207 15.844 	-0.100646 	-1.37213 15.7226 	-0.122548 	-1.45727 15.599 	-0.15563 	-1.53135 15.4762 	-0.187922 	-1.60585 15.4219 	-0.201961 	-1.63925 15.4077 	-0.206838 	-1.64809 15.3935 	-0.211717 	-1.65694 15.3793 	-0.216599 	-1.6658 15.3651 	-0.221483 	-1.67467 15.3514 	-0.22472 	-1.68063 15.157 	-0.272327 	-1.73381 14.966 	-0.324117 	-1.78528 14.775 	-0.375536 	-1.83726 14.5448 	-0.41299 	-1.89593 14.3211 	-0.498098 	-1.97912 13.9227 	-0.557384 	-1.9846 13.5889 	-0.68535 	-1.97696 13.3109 	-0.806715 	-1.99451 13.0347 	-0.928324 	-2.01311 12.8086 	-1.18477 	-2.06983 12.3858 	-1.29438 	-2.09332 11.9511 	-1.5205 	-2.11056 11.5134 	-1.81476 	-2.12549 10.9937 	-2.1573 	-2.3724 10.4098 	-2.56056 	-2.76351 9.53582 	-2.73611 	-2.96723 7.69098 	-2.19815 	-2.22471 5.78828 	-1.62319 	-1.42095 4.43763 	-1.21914 	-0.840095 3.61479 	-1.11908 	-0.597836 2.78527 	-0.911671 	-0.469123 1.97431 	-0.720726 	-0.34532 1.20282 	-0.564353 	-0.231881 0 	0 	0
19.19 	-0.0553477 	0.116865 19.1897 	-0.0553729 	0.116884 19.1894 	-0.0553981 	0.116904 19.1891 	-0.0554233 	0.116923 19.1888 	-0.0554485 	0.116942 19.1884 	-0.0554736 	0.116962 19.1753 	-0.0599359 	0.117121 19.1605 	-0.0614063 	0.118305 19.1457 	-0.0628775 	0.11949 19.1313 	-0.0643282 	0.12052 19.1133 	-0.0613989 	0.122322 19.0929 	-0.0651589 	0.122953 19.0728 	-0.0677957 	0.124134 19.0527 	-0.0704212 	0.125465 19.0326 	-0.0730486 	0.126797 19.0123 	-0.0726146 	0.128246 18.9882 	-0.0763583 	0.128775 18.9648 	-0.0801988 	0.129993 18.9415 	-0.0840427 	0.131211 18.9181 	-0.087899 	0.13237 18.8946 	-0.0885681 	0.133529 18.8659 	-0.0932993 	0.134033 18.8381 	-0.0986772 	0.135029 18.8103 	-0.104055 	0.136064 18.7825 	-0.109438 	0.137098 18.7549 	-0.111612 	0.137896 18.7196 	-0.117326 	0.138022 18.6856 	-0.125068 	0.138837 18.6516 	-0.13283 	0.139655 18.6176 	-0.140603 	0.140473 18.5833 	-0.143884 	0.140725 18.5372 	-0.151914 	0.141296 18.4935 	-0.163066 	0.14289 18.4498 	-0.174242 	0.144485 18.4061 	-0.185443 	0.14608 18.3619 	-0.194938 	0.147387 18.3028 	-0.211962 	0.148654 18.2457 	-0.231133 	0.1505 18.1886 	-0.250348 	0.152347 18.1315 	-0.26961 	0.154194 18.0701 	-0.277651 	0.156199 17.9796 	-0.293296 	0.161956 17.9013 	-0.327101 	0.166602 17.823 	-0.361066 	0.171244 17.7449 	-0.395194 	0.175882 17.6663 	-0.427254 	0.180178 17.5469 	-0.492552 	0.190801 17.4343 	-0.561951 	0.202265 17.322 	-0.631709 	0.213728 17.2098 	-0.70183 	0.225189 17.0411 	-0.761896 	0.245152 16.9524 	-0.801379 	0.25932 16.8795 	-0.866804 	0.270088 16.8077 	-0.93368 	0.280566 16.7364 	-1.00087 	0.290993 16.6657 	-1.07019 	0.302165 16.5747 	-1.18193 	0.319458 16.4921 	-1.29624 	0.336958 16.4102 	-1.41106 	0.354357 16.3291 	-1.52641 	0.371652 16.216 	-1.62972 	0.396524 16.1734 	-1.6652 	0.407852 16.1294 	-1.6998 	0.419739 16.1021 	-1.75685 	0.427421 16.0805 	-1.82142 	0.433684 16.07 	-1.85453 	0.43691 16.0302 	-1.99337 	0.449555 15.9927 	-2.13215 	0.46169 15.9575 	-2.27088 	0.473314 15.9173 	-2.41366 	0.485691 15.8967 	-2.47341 	0.491372 15.8872 	-2.50526 	0.494138 15.8777 	-2.53711 	0.496881 15.8684 	-2.56895 	0.499602 15.8591 	-2.60079 	0.5023 15.8478 	-2.62871 	0.506259 15.8572 	-2.96091 	0.511502 15.8562 	-3.30654 	0.52065 15.8602 	-3.65044 	0.528512 15.8694 	-3.9925 	0.535106 16.1291 	-4.27368 	0.478298 16.2773 	-4.37519 	0.440816 16.4163 	-4.49461 	0.409208 16.5563 	-4.61378 	0.377294 16.7032 	-4.79391 	0.347279 16.8394 	-4.97963 	0.336461 17.0448 	-5.11804 	0.27677 17.2752 	-5.21924 	0.221496 17.5003 	-5.33575 	0.165485 17.7259 	-5.45197 	0.109265 17.9298 	-5.55652 	0.0583847 17.9675 	-5.5734 	0.0489819 18.0052 	-5.59028 	0.0395752 18.043 	-5.60715 	0.0301647 18.0799 	-5.62379 	0.0213338 18.1134 	-5.63948 	0.0151171 18.436 	-5.65225 	-0.0770707 18.7842 	-5.67791 	-0.173688 19.1477 	-5.7118 	-0.273012 19.4438 	-5.68072 	-0.359967 19.7313 	-5.71692 	-0.463522 20.0688 	-5.37273 	-0.584692 20.3438 	-5.12884 	-0.703691 20.6221 	-4.88841 	-0.823509 21.0463 	-4.55629 	-0.982425 21.3151 	-4.43919 	-1.11132 21.6 	-4.07378 	-1.25144 21.7658 	-3.68407 	-1.36487 21.8928 	-3.37732 	-1.46136 22.0263 	-3.06646 	-1.55993 22.2263 	-2.56768 	-1.68716 22.2242 	-2.41775 	-1.72659 22.2003 	-2.11048 	-1.75545 22.1802 	-1.80161 	-1.78549 22.1642 	-1.49117 	-1.81669 22.1536 	-1.21853 	-1.84498 22.1549 	-1.1501 	-1.85537 22.1564 	-1.08159 	-1.86584 22.1582 	-1.013 	-1.87637 22.1601 	-0.944337 	-1.88697 22.136 	-0.88248 	-1.87912 21.9699 	-0.622004 	-1.85553 21.8122 	-0.368835 	-1.8268 21.6575 	-0.110874 	-1.80007 21.5061 	0.152015 	-1.77541 21.3389 	0.358076 	-1.72265 21.1374 	0.541113 	-1.70483 20.9621 	0.68928 	-1.6746 20.7873 	0.83964 	-1.64512 20.6131 	0.992259 	-1.6164 20.4352 	1.04106 	-1.57878 20.2939 	1.20113 	-1.58097 20.1559 	1.32603 	-1.56905 20.0188 	1.45411 	-1.55588 19.8821 	1.58383 	-1.54316 19.7632 	1.57738 	-1.45898 19.6338 	1.69215 	-1.51735 19.498 	1.7212 	-1.49966 19.3623 	1.75063 	-1.48212 19.2287 	1.75263 	-1.46244 19.0678 	1.71887 	-1.40238 18.9434 	1.88197 	-1.42818 18.8062 	1.90078 	-1.413 18.6609 	1.96101 	-1.3994 18.513 	2.02006 	-1.38089 18.329 	1.96547 	-1.27138 18.1407 	2.08551 	-1.35436 17.9627 	2.08068 	-1.34449 17.7813 	2.06112 	-1.32655 17.5363 	2.04636 	-1.2966 17.1106 	2.03793 	-1.21155 17.087 	1.81766 	-1.26343 16.9413 	1.66271 	-1.26962 16.7492 	1.5463 	-1.24829 16.4775 	1.45413 	-1.1636 16.0425 	1.37309 	-0.986732 15.9626 	0.925271 	-1.0519 15.8319 	0.609789 	-1.06787 15.6618 	0.440089 	-1.05685 15.4383 	0.322775 	-1.03174 15.1406 	0.272031 	-0.979874 15.241 	0.0260014 	-1.03312 15.2125 	-0.120269 	-1.06284 15.1128 	-0.211344 	-1.07953 14.9668 	-0.274946 	-1.06295 14.7662 	-0.247606 	-1.0054 14.7987 	-0.352588 	-1.10563 14.6977 	-0.431395 	-1.1447 14.5711 	-0.505052 	-1.16659 14.4272 	-0.572226 	-1.1818 14.1807 	-0.599772 	-1.15891 14.0926 	-0.596109 	-1.20922 13.9164 	-0.607678 	-1.29897 13.7218 	-0.622731 	-1.39755 13.5057 	-0.61402 	-1.50009 13.2262 	-0.504747 	-1.62313 12.7667 	-0.353276 	-1.89141 10.9562 	-0.416481 	-1.57356 9.18979 	-0.447145 	-1.23807 7.68012 	-0.418495 	-0.986957 6.89005 	-0.401499 	-0.857674 6.71316 	-0.388333 	-0.837593 6.53636 	-0.375159 	-0.817534 6.35966 	-0.361976 	-0.797498 6.17964 	-0.355224 	-0.773407 5.98911 	-0.359793 	-0.741455 5.24708 	-0.346153 	-0.652485 4.50821 	-0.333035 	-0.564241 3.77367 	-0.320623 	-0.476978 3.04536 	-0.309213 	-0.391103 2.53351 	-0.472443 	-0.325102 2.57321 	-0.484466 	-0.381269 2.61665 	-0.496766 	-0.437874 2.66364 	-0.509321 	-0.494875 2.54655 	-0.473078 	-0.48784 1.60753 	-0.196072 	-0.161499 2.2494 	-0.150243 	-0.299411 3.06981 	-0.13299 	-0.451235 4.03338 	-0.173845 	-0.565644 3.18716 	-0.126867 	-0.124976 2.31921 	-0.0797356 	0.294752 3.58013 	-0.355587 	0.661913 4.022 	-0.296839 	1.13104 3.8061 	0.0353992 	1.69519 3.47979 	0.333236 	2.14424 5.33992 	0.0230452 	3.23454 7.23036 	-0.501441 	4.34 9.13127 	-1.1276 	5.44975 7.75459 	-0.495438 	4.67964 6.18323 	0.235196 	3.79828 6.01295 	0.110535 	5.13682 6.36073 	-0.331293 	6.42723 5.03056 	-0.0714855 	6.18662 3.23667 	0.424229 	5.06721 2.73691 	0.58027 	4.58306 4.10681 	-0.397917 	6.58019 4.85515 	-0.901357 	8.34836 5.02784 	-1.0311 	9.00087 5.06662 	-1.13421 	9.01109 5.10038 	-1.2363 	9.02692 5.09543 	-1.28577 	9.07417 5.09046 	-1.33525 	9.12132 5.08547 	-1.38474 	9.16838 5.0218 	-1.35623 	8.92453 4.95052 	-1.31796 	8.64434 4.93394 	-1.79406 	9.81828 4.77653 	-2.1366 	10.2672 4.44905 	-2.32255 	11.0422 3.92079 	-1.88453 	9.37468 3.18035 	-0.787813 	5.0631 2.78582 	-1.50307 	6.69725 1.75033 	-1.27348 	4.93852 2.75298 	-1.79873 	7.91715 3.44125 	-2.03113 	9.77738 3.06613 	-1.33303 	7.98379 3.11478 	-1.54793 	9.22792 3.1586 	-1.49474 	9.46501 3.20267 	-1.37001 	9.4346 3.24802 	-1.24448 	9.40222 3.30888 	-1.07963 	9.35733 3.15117 	-1.09477 	9.46906 2.99672 	-1.10418 	9.57735 2.73914 	-0.936574 	9.17374 2.47772 	-0.656826 	8.43882 2.34859 	-0.342425 	7.99696 2.51692 	-0.456532 	8.47262 2.87675 	-0.461763 	9.46112 2.60386 	-0.363086 	8.388 2.33296 	-0.265949 	7.32193 2.46451 	0.183013 	6.72732 2.35064 	-0.12298 	7.50086 2.48805 	-0.0897701 	7.77225 2.64306 	-0.0602973 	8.09574 2.84309 	0.098755 	7.85764 3.10448 	0.417777 	6.93499 3.10696 	0.36808 	7.17416 3.12663 	0.360926 	7.22339 3.15636 	0.377911 	7.16575 3.18651 	0.3952 	7.10763 3.21879 	0.413791 	7.04573 3.15957 	0.308045 	7.0433 3.09782 	0.20085 	7.04755 2.8157 	0.126363 	6.13148 3.09765 	0.294002 	6.50994 3.42986 	0.700158 	5.69291 3.16018 	0.533612 	5.92672 3.09493 	0.731896 	5.654 3.03967 	0.922723 	5.37412 3.02242 	1.25522 	4.71716 3.06379 	1.7644 	3.83181 3.07039 	1.79992 	3.97259 3.07671 	1.83412 	4.11494 2.98999 	1.90231 	4.12054 2.87732 	1.97985 	4.084 2.7488 	2.06875 	4.03912 2.57067 	2.43436 	4.17716 2.49194 	2.77621 	4.27407 2.46928 	3.10371 	4.34122 2.09324 	2.55609 	3.45681 1.34176 	1.14951 	1.60124 1.45271 	1.37631 	2.09979 1.63295 	1.62773 	3.00621 1.49926 	1.48006 	2.64473 1.24475 	1.18509 	1.84569 0.550827 	0.618081 	0.666707 0.508047 	0.655205 	0.659117 0.468934 	0.699569 	0.65658 0.433723 	0.751264 	0.659238 0.351999 	0.624185 	0.559411 0.204123 	0.316211 	0.346028 0.0859067 	0.448123 	0.214414 0.011964 	0.474418 	0.119818 -0.0302828 	0.437773 	0.0544899 -0.0512052 	0.362517 	0.00966766 0 	0 	0
19.1941 	-0.0542247 	0.135638 19.1937 	-0.0542484 	0.135681 19.1934 	-0.054272 	0.135725 19.1931 	-0.0542956 	0.135768 19.1928 	-0.0543192 	0.135812 19.1925 	-0.0543428 	0.135855 19.1792 	-0.0588275 	0.137753 19.1643 	-0.0602996 	0.138942 19.1508 	-0.0616182 	0.140523 19.1374 	-0.0629317 	0.142118 19.1196 	-0.0603197 	0.143285 19.0987 	-0.0637617 	0.145248 19.0786 	-0.0662908 	0.147315 19.0585 	-0.0688217 	0.149383 19.0384 	-0.0714382 	0.150772 19.0183 	-0.0707499 	0.152241 18.994 	-0.0745974 	0.154207 18.9708 	-0.0783907 	0.155542 18.9475 	-0.0820074 	0.157625 18.9242 	-0.0856273 	0.159708 18.9013 	-0.0864962 	0.161234 18.8727 	-0.090644 	0.162973 18.8451 	-0.0957338 	0.164991 18.8175 	-0.100829 	0.167009 18.7901 	-0.106053 	0.168312 18.7625 	-0.107576 	0.169648 18.7272 	-0.113627 	0.171545 18.6928 	-0.121206 	0.173314 18.6594 	-0.128373 	0.176202 18.6261 	-0.13555 	0.179091 18.5916 	-0.13941 	0.181439 18.5465 	-0.146845 	0.183896 18.5038 	-0.157728 	0.187091 18.4611 	-0.168632 	0.190287 18.4184 	-0.179603 	0.193358 18.3744 	-0.185215 	0.195802 18.3141 	-0.198576 	0.200188 18.26 	-0.21555 	0.205364 18.2059 	-0.232568 	0.210541 18.1518 	-0.249631 	0.215718 18.0971 	-0.261747 	0.22016 18.0136 	-0.282342 	0.229815 17.9424 	-0.310782 	0.239845 17.8711 	-0.339324 	0.249879 17.8 	-0.367969 	0.259916 17.7202 	-0.385774 	0.266877 17.5943 	-0.436158 	0.290596 17.4954 	-0.490795 	0.310903 17.3974 	-0.545182 	0.331199 17.2996 	-0.599927 	0.351486 17.1512 	-0.662077 	0.382986 17.0854 	-0.689058 	0.401769 17.0217 	-0.735702 	0.419564 16.9534 	-0.783398 	0.440058 16.8856 	-0.831669 	0.46048 16.8296 	-0.894222 	0.479606 16.7153 	-0.962166 	0.509141 16.6534 	-1.04643 	0.53533 16.5921 	-1.13106 	0.561429 16.5264 	-1.22014 	0.586865 16.439 	-1.30434 	0.620662 16.3409 	-1.44546 	0.656447 16.2794 	-1.58822 	0.686029 16.2228 	-1.72225 	0.717131 16.1678 	-1.85722 	0.747824 16.0896 	-2.0161 	0.784444 16.0766 	-2.0853 	0.802187 16.0679 	-2.16275 	0.813022 16.0597 	-2.24027 	0.823669 16.052 	-2.31785 	0.834129 16.0471 	-2.37049 	0.841094 16.0297 	-2.51603 	0.86398 16.0139 	-2.66143 	0.886374 15.9997 	-2.80668 	0.908274 15.9768 	-2.95627 	0.927579 15.922 	-3.16643 	0.960467 16.1205 	-3.3881 	0.906433 16.0455 	-3.71516 	0.965037 16.2096 	-4.0791 	0.915169 16.4973 	-4.37998 	0.796835 16.8525 	-4.62551 	0.63748 17.0275 	-4.74122 	0.5417 17.1937 	-4.83002 	0.461828 17.3597 	-4.91645 	0.383172 17.5247 	-4.99839 	0.307046 17.714 	-5.10583 	0.224332 17.739 	-5.10577 	0.212663 17.7616 	-5.10517 	0.201817 17.7826 	-5.1042 	0.19153 17.8036 	-5.10324 	0.181243 17.8248 	-5.10228 	0.17085 18.0544 	-5.15792 	0.0539181 18.263 	-5.22057 	-0.0550952 18.4761 	-5.26073 	-0.16958 18.6909 	-5.29686 	-0.285462 18.9161 	-5.27752 	-0.414554 19.2133 	-5.15933 	-0.60885 19.4983 	-5.08685 	-0.806932 19.7378 	-4.98117 	-0.979493 19.9358 	-4.84584 	-1.1289 20.1132 	-4.68566 	-1.27335 20.3703 	-4.45905 	-1.5161 20.5321 	-4.24326 	-1.67438 20.6969 	-4.03068 	-1.83418 20.8308 	-3.81955 	-1.96645 21.0219 	-3.33526 	-2.13534 21.0229 	-3.16493 	-2.24617 21.0488 	-2.85974 	-2.32057 21.0991 	-2.57867 	-2.40038 21.1543 	-2.30149 	-2.4837 21.2104 	-2.00036 	-2.56501 21.2052 	-1.87562 	-2.58026 21.1998 	-1.77088 	-2.5863 21.195 	-1.66618 	-2.59274 21.1906 	-1.56152 	-2.59959 21.1821 	-1.33442 	-2.61535 21.1756 	-1.14873 	-2.63336 21.123 	-0.973159 	-2.63596 21.0716 	-0.79702 	-2.6388 21.0214 	-0.620322 	-2.64187 20.9747 	-0.446877 	-2.64362 20.9591 	-0.409919 	-2.63853 20.9432 	-0.369706 	-2.63268 20.9273 	-0.329388 	-2.62685 20.9115 	-0.288967 	-2.62104 20.9037 	-0.269045 	-2.6182 20.8053 	-0.0152735 	-2.58074 20.7087 	0.241509 	-2.54389 20.6141 	0.501334 	-2.50766 20.5284 	0.766606 	-2.48102 20.4453 	0.976886 	-2.48358 20.2703 	1.17453 	-2.40474 20.1267 	1.2819 	-2.36864 19.9916 	1.36619 	-2.32965 19.8572 	1.45112 	-2.29054 19.6399 	1.43226 	-2.29136 19.5338 	1.66901 	-2.24418 19.3996 	1.73943 	-2.24115 19.2655 	1.80986 	-2.23828 19.1315 	1.88031 	-2.23559 18.9757 	1.9242 	-2.2416 18.9405 	1.94537 	-2.2234 18.8968 	1.9591 	-2.21813 18.8531 	1.97284 	-2.21288 18.8094 	1.98658 	-2.20762 18.7673 	1.98708 	-2.20219 18.661 	2.00934 	-2.18897 18.5547 	2.03169 	-2.17578 18.4483 	2.05413 	-2.16262 18.342 	2.07666 	-2.14949 18.1954 	1.97076 	-2.08867 18.075 	2.18166 	-2.11068 17.928 	2.25315 	-2.08864 17.7811 	2.32491 	-2.06672 17.6277 	2.40272 	-2.03994 17.3404 	2.32193 	-1.86564 17.2819 	2.32964 	-1.92808 17.1325 	2.29118 	-1.89801 16.9556 	2.17767 	-1.84366 16.7098 	2.00273 	-1.69596 16.4003 	1.76969 	-1.46165 16.3478 	1.85969 	-1.50277 16.251 	1.89645 	-1.50961 16.0591 	1.81492 	-1.44284 15.5907 	1.70451 	-1.13796 15.0886 	1.56772 	-0.805069 15.1681 	1.31134 	-0.999724 15.1797 	1.08801 	-1.13797 14.9517 	0.974945 	-1.07431 14.3809 	1.10848 	-0.748237 13.8083 	1.25238 	-0.419944 13.8555 	0.666892 	-0.650079 13.9052 	0.0650913 	-0.88255 13.6087 	-0.161187 	-0.854089 13.0509 	-0.0737042 	-0.736409 12.476 	0.028001 	-0.607635 12.3401 	-0.613037 	-0.80426 12.2002 	-1.23075 	-0.983632 11.8947 	-1.53003 	-0.945031 11.4201 	-1.5668 	-0.764354 10.8127 	-1.47761 	-0.497465 10.7529 	-2.50454 	-0.985046 8.15788 	-1.89586 	-0.742789 5.29297 	-1.11295 	-0.424328 3.67315 	-0.675959 	-0.248678 3.08146 	-0.607006 	-0.210114 2.49742 	-0.542069 	-0.171998 1.9289 	-0.484061 	-0.135073 1.38676 	-0.437673 	-0.100164 1.05873 	-0.565972 	-0.0540842 1.41917 	-1.07709 	-0.016728 1.58794 	-1.32116 	0.00159521 1.42066 	-1.18199 	0.00142717 1.25339 	-1.04282 	0.00125912 0 	0 	0