# vtk DataFile Version 2.0
track0
ASCII
DATASET POLYDATA
POINTS 19274 float
-1.001 -0.05 0.316889
-1.0008 -0.0500006 0.316891
-1.00059 -0.0500012 0.316892
-1.00039 -0.0500018 0.316893
-1.00019 -0.0500024 0.316894
-0.999982 -0.050003 0.316895
-0.987481 -0.0500399 0.316959
-0.97498 -0.0500787 0.317024
-0.962479 -0.0501183 0.31709
-0.949978 -0.0501589 0.317156
-0.937477 -0.0502004 0.317223
-0.924975 -0.0502413 0.31729
-0.912473 -0.0502844 0.317357
-0.89997 -0.0503294 0.317425
-0.887468 -0.0503761 0.317493
-0.874966 -0.0504246 0.317561
-0.862462 -0.0504731 0.317631
-0.849959 -0.0505232 0.3177
-0.837455 -0.0505758 0.31777
-0.824951 -0.0506311 0.31784
-0.812448 -0.0506891 0.317911
-0.79995 -0.050749 0.317982
-0.787453 -0.0508125 0.318053
-0.774955 -0.0508798 0.318124
-0.762458 -0.0509509 0.318195
-0.749961 -0.0510258 0.318266
-0.737547 -0.0511014 0.318337
-0.725134 -0.0511789 0.318408
-0.712721 -0.0512618 0.318479
-0.700308 -0.0513502 0.318549
-0.687895 -0.0514441 0.318618
-0.681894 -0.051492 0.318652
-0.675893 -0.0515417 0.318685
-0.669892 -0.0515936 0.318718
-0.663891 -0.0516474 0.318751
-0.657828 -0.0517039 0.318784
-0.651663 -0.0517634 0.318817
-0.645498 -0.051825 0.31885
-0.639332 -0.0518887 0.318883
-0.633167 -0.0519546 0.318916
-0.627001 -0.0520214 0.318948
-0.61425 -0.0521607 0.319015
-0.601499 -0.0523059 0.319081
-0.588748 -0.0524664 0.319146
-0.575997 -0.0526423 0.31921
-0.563245 -0.0528339 0.319272
-0.550725 -0.0530335 0.319332
-0.538206 -0.053255 0.319393
-0.525687 -0.0535029 0.319451
-0.513168 -0.0537775 0.319506
-0.500645 -0.0540793 0.319559
-0.488224 -0.0543965 0.319611
-0.475804 -0.054758 0.319665
-0.463386 -0.0551769 0.319716
-0.45097 -0.0556543 0.319763
-0.438538 -0.0561925 0.319808
-0.432347 -0.0564933 0.319833
-0.426157 -0.0568072 0.319861
-0.419968 -0.0571503 0.319888
-0.413781 -0.0575236 0.319915
-0.407583 -0.0579285 0.31994
-0.401362 -0.0583692 0.319963
-0.395145 -0.0588561 0.31999
-0.388933 -0.059397 0.320016
-0.382726 -0.0599928 0.320041
-0.376477 -0.0606483 0.320066
-0.371915 -0.0611672 0.320085
-0.367359 -0.0617351 0.320108
-0.362809 -0.0623562 0.320132
-0.358269 -0.0630393 0.320159
-0.357179 -0.063217 0.320165
-0.354776 -0.0636156 0.320179
-0.352375 -0.0640277 0.320192
-0.349977 -0.0644532 0.320205
-0.347581 -0.064892 0.320218
-0.345163 -0.0653488 0.32023
-0.338842 -0.0665788 0.320264
-0.332545 -0.0679219 0.320292
-0.326279 -0.069402 0.320318
-0.320045 -0.071015 0.320335
-0.313555 -0.0728253 0.320342
-0.310349 -0.0737691 0.320339
-0.307142 -0.0747118 0.320336
-0.303938 -0.0756639 0.32033
-0.30074 -0.0766351 0.320321
-0.297521 -0.0776319 0.320309
-0.29677 -0.0778735 0.320306
-0.29602 -0.078116 0.320302
-0.29527 -0.078358 0.320298
-0.294519 -0.0785993 0.320293
-0.293767 -0.0788402 0.320288
-0.291415 -0.0795907 0.320271
-0.289063 -0.0803393 0.32025
-0.286711 -0.081086 0.320227
-0.284358 -0.0818308 0.320202
-0.28201 -0.082571 0.320176
-0.278828 -0.0835667 0.320137
-0.275632 -0.084521 0.320091
-0.272426 -0.0854357 0.320039
-0.269209 -0.0863157 0.31998
-0.266105 -0.0871352 0.319919
-0.262998 -0.087928 0.319855
-0.259881 -0.0886797 0.319783
-0.256753 -0.0893838 0.319707
-0.253613 -0.0900305 0.319629
-0.250592 -0.0905975 0.319549
-0.247522 -0.0910706 0.319466
-0.244446 -0.0914946 0.31938
-0.241361 -0.0918606 0.319291
-0.238271 -0.0921695 0.319201
-0.235286 -0.0924126 0.319112
-0.232058 -0.092603 0.319015
-0.228829 -0.092759 0.318917
-0.225598 -0.092872 0.318818
-0.222365 -0.0929411 0.318718
-0.219138 -0.0929648 0.318618
-0.215946 -0.092937 0.318516
-0.212753 -0.0928857 0.318415
-0.209561 -0.0928075 0.318313
-0.20637 -0.0927043 0.318211
-0.203165 -0.0925748 0.318107
-0.20011 -0.0924293 0.318006
-0.197055 -0.0922788 0.317905
-0.194001 -0.0921201 0.317804
-0.190948 -0.0919529 0.317702
-0.18789 -0.0917754 0.317599
-0.184891 -0.0915878 0.317497
-0.181892 -0.0913829 0.317396
-0.178894 -0.0911638 0.317295
-0.175898 -0.09093 0.317193
-0.172894 -0.0906803 0.31709
-0.169846 -0.0904225 0.316985
-0.166799 -0.0901512 0.316882
-0.163753 -0.0898796 0.316777
-0.160707 -0.0896077 0.31667
-0.157657 -0.0893352 0.316563
-0.154537 -0.0890569 0.31645
-0.151419 -0.0887616 0.316338
-0.1483 -0.0884703 0.316225
-0.145181 -0.0881841 0.316112
-0.142062 -0.0879031 0.315998
-0.138604 -0.087608 0.315878
-0.135143 -0.0873381 0.315762
-0.131681 -0.087084 0.315643
-0.128219 -0.0868462 0.315522
-0.124775 -0.0866319 0.315403
-0.121532 -0.0864387 0.315299
-0.118287 -0.0862958 0.315184
-0.115041 -0.0861738 0.315059
-0.111794 -0.0860706 0.314923
-0.10857 -0.0859875 0.314779
-0.105314 -0.0859196 0.314618
-0.102058 -0.0858799 0.31444
-0.0988039 -0.0858535 0.314247
-0.0955502 -0.0858403 0.314036
-0.0922853 -0.0858415 0.313804
-0.0890688 -0.0858507 0.313545
-0.0858541 -0.0858712 0.313267
-0.0826411 -0.0858962 0.312969
-0.0794298 -0.0859282 0.312654
-0.0779984 -0.0859456 0.312505
-0.0776415 -0.0859503 0.312467
-0.0772845 -0.0859551 0.312429
-0.0769276 -0.08596 0.312391
-0.0765707 -0.085965 0.312352
-0.0762138 -0.0859702 0.312313
-0.0734196 -0.0860111 0.312007
-0.070627 -0.0860612 0.311688
-0.0678362 -0.0861217 0.311355
-0.0650473 -0.0861926 0.311008
-0.0622475 -0.0862721 0.310643
-0.0593137 -0.0863741 0.310238
-0.0563821 -0.0864915 0.30982
-0.0534532 -0.0866392 0.309394
-0.0505276 -0.0868165 0.308955
-0.0475567 -0.0870281 0.308496
-0.0443131 -0.0873281 0.307972
-0.041077 -0.0876663 0.307425
-0.0378531 -0.0880765 0.306856
-0.0346468 -0.0885818 0.306264
-0.0312866 -0.0892412 0.305539
-0.0283065 -0.0899742 0.304748
-0.0253879 -0.0908117 0.30384
-0.0224521 -0.0916507 0.30299
-0.0203525 -0.0922395 0.302475
-0.0185791 -0.0927267 0.302139
-0.0168151 -0.0932728 0.301847
-0.0150607 -0.0938471 0.301552
-0.0133278 -0.0944797 0.301249
-0.0114024 -0.0953831 0.300878
-1.001 -0.05 0.369521
-1.0008 -0.0500006 0.369522
-1.00059 -0.0500012 0.369524
-1.00039 -0.0500018 0.369525
-1.00019 -0.0500023 0.369526
-0.999983 -0.0500029 0.369527
-0.987482 -0.0500391 0.369603
-0.974981 -0.0500782 0.36968
-0.96248 -0.0501182 0.369757
-0.949978 -0.0501593 0.369835
-0.937477 -0.0502013 0.369914
-0.924975 -0.0502415 0.369994
-0.912473 -0.0502841 0.370074
-0.899971 -0.0503286 0.370156
-0.887469 -0.0503748 0.370238
-0.874967 -0.0504228 0.370321
-0.862469 -0.0504705 0.370406
-0.849972 -0.0505208 0.37049
-0.837474 -0.0505736 0.370576
-0.824977 -0.0506291 0.370663
-0.812479 -0.0506871 0.37075
-0.800059 -0.0507453 0.370838
-0.787639 -0.0508068 0.370926
-0.775218 -0.0508718 0.371015
-0.762798 -0.0509405 0.371105
-0.750377 -0.0510129 0.371196
-0.738235 -0.0510852 0.371285
-0.726092 -0.0511613 0.371374
-0.713949 -0.0512425 0.371465
-0.701806 -0.051329 0.371556
-0.689663 -0.0514207 0.371647
-0.676973 -0.051519 0.371743
-0.664282 -0.051623 0.37184
-0.651591 -0.0517349 0.371938
-0.638901 -0.0518547 0.372037
-0.62621 -0.0519826 0.372138
-0.613705 -0.0521154 0.372238
-0.601201 -0.0522602 0.37234
-0.588696 -0.0524186 0.372443
-0.576192 -0.0525907 0.372548
-0.563687 -0.0527766 0.372654
-0.551184 -0.0529687 0.372762
-0.53868 -0.0531727 0.372875
-0.526178 -0.0534012 0.372991
-0.513676 -0.0536544 0.373111
-0.50117 -0.0539329 0.373235
-0.488719 -0.0542341 0.373362
-0.476268 -0.0545836 0.373498
-0.46382 -0.0549848 0.373642
-0.451373 -0.0554387 0.373796
-0.438911 -0.055947 0.373959
-0.43269 -0.0562251 0.374048
-0.42647 -0.0565191 0.374143
-0.420252 -0.0568384 0.374243
-0.414035 -0.0571838 0.374347
-0.407807 -0.0575562 0.374455
-0.40156 -0.0579574 0.374568
-0.395316 -0.0584027 0.374689
-0.389075 -0.0588931 0.374816
-0.382838 -0.0594294 0.374951
-0.376566 -0.0600158 0.375094
-0.375296 -0.0601433 0.375125
-0.374027 -0.060274 0.375157
-0.372758 -0.0604078 0.37519
-0.37149 -0.0605461 0.375223
-0.370533 -0.0606545 0.375249
-0.36594 -0.0611846 0.375374
-0.361351 -0.0617552 0.375503
-0.356767 -0.0623663 0.375635
-0.35219 -0.0630177 0.375771
-0.350379 -0.0632924 0.375826
-0.349341 -0.0634538 0.375858
-0.348304 -0.0636174 0.37589
-0.347267 -0.0637831 0.375923
-0.34623 -0.0639509 0.375956
-0.34519 -0.0641215 0.375988
-0.338825 -0.0651773 0.376192
-0.332482 -0.0663616 0.376396
-0.326166 -0.0676788 0.376604
-0.319878 -0.0691259 0.376813
-0.313297 -0.0707816 0.377035
-0.310108 -0.0716266 0.37713
-0.306922 -0.0724831 0.377216
-0.303739 -0.0733544 0.377295
-0.300561 -0.0742402 0.377368
-0.29735 -0.0751615 0.377435
-0.294639 -0.0759634 0.377489
-0.291931 -0.0767766 0.377533
-0.289223 -0.0775945 0.377567
-0.286518 -0.0784192 0.377593
-0.284081 -0.079169 0.377608
-0.283573 -0.0793263 0.37761
-0.283065 -0.0794838 0.377611
-0.282558 -0.0796414 0.377612
-0.28205 -0.0797992 0.377613
-0.281542 -0.0799572 0.377614
-0.278203 -0.0809969 0.377616
-0.274859 -0.0820221 0.377602
-0.271511 -0.0830341 0.377572
-0.26816 -0.0840337 0.377524
-0.26484 -0.0850037 0.377462
-0.261667 -0.0859228 0.377388
-0.258477 -0.0867768 0.377295
-0.255276 -0.087584 0.377184
-0.252064 -0.0883454 0.377056
-0.248945 -0.0890205 0.37691
-0.245854 -0.0896644 0.376749
-0.242752 -0.0902494 0.376569
-0.23964 -0.0907761 0.376374
-0.236522 -0.0912571 0.376166
-0.233448 -0.091685 0.375948
-0.231073 -0.0919594 0.375768
-0.228697 -0.092218 0.375583
-0.226317 -0.0924442 0.375395
-0.223935 -0.0926377 0.375204
-0.221851 -0.0927779 0.375033
-0.22131 -0.0928076 0.374988
-0.22077 -0.0928357 0.374942
-0.220229 -0.0928621 0.374897
-0.219688 -0.0928868 0.374851
-0.219148 -0.0929098 0.374805
-0.216025 -0.0930343 0.37454
-0.212901 -0.0931228 0.374276
-0.209776 -0.0931756 0.374014
-0.20665 -0.0931916 0.373755
-0.203546 -0.0931697 0.373498
-0.200424 -0.0931173 0.373246
-0.197303 -0.0930374 0.372995
-0.194182 -0.0929348 0.372745
-0.191062 -0.0928087 0.372498
-0.187942 -0.0926585 0.372254
-0.184863 -0.0925017 0.372016
-0.181785 -0.0923195 0.371776
-0.178709 -0.0921171 0.371537
-0.175634 -0.0918938 0.371298
-0.172547 -0.0916479 0.371058
-0.169467 -0.091402 0.370831
-0.166389 -0.0911368 0.370593
-0.163312 -0.0908651 0.370356
-0.160235 -0.0905869 0.37012
-0.157146 -0.0903054 0.369886
-0.154056 -0.0900268 0.369658
-0.150969 -0.0897201 0.369426
-0.147882 -0.0894082 0.369194
[...]
POINT_DATA 19274
 FIELD attributes 2
p 1 19274 float
18.3438 18.3499 18.3561 18.3623 18.3684 18.3746 18.6433 18.9069 19.1705 19.4341 19.7453 20.1329 20.5175 20.902 21.2866 21.681 22.1335 22.5721 23.0108 23.4495 23.8878 24.4091 24.9261 25.4431 25.9601 26.4927 27.1499 27.7769 28.4038 29.0307 29.6569 30.0452 30.4298 30.8144 31.199 31.5875 31.9835 32.3796 32.7756 33.1942 33.6165 34.7503 35.7723 36.7938 37.815 38.8547 40.3549 41.733 43.1103 44.4869 45.8711 48.1695 50.1882 52.2037 54.2146 57.0751 58.3433 59.6011 60.8882 62.1685 63.6727 65.5617 66.8039 68.024 69.2184 70.4757 71.4541 71.8476 72.4675 72.7109 72.7448 72.8062 72.8588 72.9026 72.9376 72.9807 71.5745 71.1256 68.0891 62.4087 55.7333 52.1409 48.2108 44.0892 40.1072 35.2536 33.6883 32.0865 30.4752 28.8637 27.2501 22.8743 18.4172 13.7845 9.18695 4.77875 -1.37173 -7.88142 -16.1021 -23.9147 -31.4619 -38.8489 -44.7692 -48.7104 -52.9124 -58.1141 -60.7358 -62.578 -64.3513 -66.2619 -68.2618 -65.6356 -62.7297 -59.9843 -57.9389 -54.3713 -47.4455 -41.6251 -36.1846 -30.7638 -25.084 -19.2005 -15.0206 -10.8392 -6.5762 -4.03842 -0.430118 2.05805 4.53707 7.01522 8.36203 11.8438 14.2791 16.7144 19.1794 20.9748 24.5558 27.3734 30.2606 33.1464 37.0583 40.5037 43.8595 47.2098 50.973 55.2934 57.4368 59.6587 62.0615 64.451 66.7582 68.5759 70.1882 71.786 72.9752 73.5455 74.4036 75.7064 77.3479 78.9781 79.7001 79.8867 80.0732 80.2597 80.446 80.6275 83.2729 85.8565 88.4409 91.5921 94.7797 100.129 104.808 108.551 112.271 115.124 121.814 126.917 131.058 133.457 134.064 139.656 140.784 141.731 142.477 144.158 145.946 147.731 149.508 146.495
18.1691 18.1751 18.1812 18.1873 18.1934 18.1994 18.4536 18.745 19.0363 19.3201 19.6741 20.0679 20.4536 20.8396 21.2256 21.6149 22.0697 22.5102 22.9507 23.391 23.8327 24.367 24.8854 25.4039 25.9224 26.4381 27.0888 27.7169 28.3448 28.9727 29.6034 30.4439 31.2344 32.0249 32.8152 33.6124 34.6619 35.6784 36.6947 37.7107 38.7996 40.3386 41.6756 43.0114 44.3462 45.6777 47.6862 49.5974 51.5057 53.4109 56.2406 57.6621 58.8863 60.092 61.2917 62.5134 63.8623 65.0879 66.3016 67.5031 69.1823 69.764 70.3691 70.6648 70.856 70.9338 71.1761 71.384 71.5573 71.7942 71.9504 72.0248 72.098 72.17 72.2408 72.3071 71.3596 70.4366 69.4435 68.3819 63.7604 61.3412 58.4993 55.6425 52.5873 49.2144 44.9296 40.7383 36.5673 32.3897 28.6169 27.8819 27.1467 26.4115 25.7118 25.172 19.4861 12.5166 4.77332 -0.884849 -7.77188 -12.7191 -17.8607 -23.1151 -31.5921 -38.0066 -43.0937 -46.0876 -48.1537 -50.4073 -54.6586 -53.3914 -52.8696 -52.4641 -52.1764 -52.029 -52.0288 -52.0347 -52.0467 -52.0649 -51.5408 -47.0244 -42.9382 -38.9237 -34.9838 -30.9027 -25.4967 -21.1639 -16.8362 -12.5137 -9.19753 -5.78195 -2.95657 -0.0884635 2.77798 4.49491 7.4455 9.87563 12.3037 14.8979 17.0629 20.0366 22.6137 25.2236 27.8331 30.4558 34.0264 37.3132 40.6382 44.5519 50.0336 53.1349 56.7123 60.408 64.8492 70.9252 74.5603 78.0773 81.0993 83.6622 85.7871 86.6361 87.7811 89.0885 90.5371 91.4968 92.2414 93.8528 95.5082 97.199 99.1094 102.559 105.307 107.899 110.312 111.79 116.817 116.263 115.056 114.298 113.93 113.931 113.933 113.934 113.979 114.102 114.346 114.584 114.815 115.035 115.388 115.231 115.073 114.915 114.582 113.408 110.889 108.189 90.0581 92.0575 93.7984 88.7539 88.098 90.6017 92.3787 79.841 66.6346 53.1123 60.454 69.1575 72.7573 75.5921 76.6172 76.113 75.5555 76.7361 76.5822 75.2926 73.8023 72.3597 72.0248 71.689 71.3521 71.0632 70.782 62.8711 55.6636 49.9516 46.9218 46.8984 40.9325 40.8323 42.5695 46.0219 54.4662 52.1366 52.7874 54.2396 55.7026 57.626 58.4009 59.1692 60.0725 60.6975 58.7801 59.0528 58.2656 58.2824 58.2873 59.0164 62.2789 64.6862 67.0992 69.1919 70.77 71.2607 71.4957 71.5855 71.6733 71.7639 73.2019 74.6609 76.6039 77.738 78.3454 81.5085 83.282 85.0186 85.6079 84.6569 84.1056 83.5541 83.4601 83.493 83.5185 84.256 84.4886 84.4335 83.4754 81.6305 81.0955 80.0616 80.1399 80.557 81.0683 81.1402 81.2056 81.2641 81.4241 81.7198 82.1941 82.4693 82.6069 82.6533 82.4328
18.0825 18.0886 18.0948 18.101 18.1071 18.1133 18.3753 18.6673 18.9329 19.1976 19.5452 19.9453 20.3327 20.7201 21.1058 21.493 21.947 22.3856 22.825 23.2644 23.7011 24.2301 24.7463 25.2624 25.7728 26.2905 26.9389 27.5731 28.1903 28.8075 29.4473 30.2666 31.0436 31.8204 32.597 33.391 34.4609 35.4287 36.3962 37.3634 38.3431 39.8038 41.0377 42.2706 43.5026 44.8298 46.9193 48.5877 50.2407 51.8913 54.4239 55.3358 56.389 57.5531 58.7147 59.9012 61.6316 62.647 63.6532 64.7031 66.0857 67.3718 68.1409 68.8855 69.6055 70.6194 70.6638 70.5671 70.4623 70.3494 70.2674 70.1555 70.0222 69.8676 69.8621 69.6767 66.6809 66.5456 63.0232 57.8688 51.1823 48.3546 45.1057 41.8055 38.4233 34.2301 33.916 33.5228 33.0759 32.6289 32.1772 27.859 24.1354 20.1374 16.0618 11.3305 6.57979 0.278805 -4.35418 -7.47858 -11.8967 -16.1826 -19.0764 -22.0559 -24.6 -29.8017 -27.0629 -27.2159 -27.863 -28.6143 -29.7777 -29.0026 -28.8165 -28.638 -28.4671 -28.1127 -27.7653 -26.2287 -24.7176 -23.232 -21.8333 -21.3935 -20.9313 -20.4696 -20.0083 -19.7817 -16.9044 -14.0588 -11.246 -9.01661 -7.57165 -2.04827 1.42094 4.6553 7.88821 9.87537 14.311 16.5209 18.7204 20.9093 23.3933 24.3016 25.0351 25.7682 26.5009 27.1671 29.1171 31.0657 33.0129 34.9586 36.8185 40.0397 42.8482 45.6509 48.6228 51.9399 55.1822 58.3588 61.3395 64.4051 67.5433 70.4334 73.4067 76.5554 81.4237 86.4407 88.7579 91.4578 95.1683 100.513 105.845 109.042 112.184 116.373 120.282 124.337 129.601 134.621 138.42 142.336 146.751 153.105 153.289 152.893 152.79 153.33 153.858 154.369 154.851 153.267 154.117 154.29 153.858 153.426 145.965
17.5473 17.5532 17.5591 17.565 17.5709 17.5768 17.8336 18.0901 18.3466 18.6031 18.9262 19.3037 19.6785 20.0532 20.428 20.8086 21.2311 21.6593 22.0875 22.5155 22.9363 23.4424 23.9393 24.436 24.9365 25.4412 26.0534 26.6458 27.2476 27.8495 28.4504 29.175 29.8924 30.6098 31.3127 32.0148 32.8992 33.7391 34.5997 35.46 36.3284 37.3865 38.425 39.4632 40.4619 41.4577 42.7622 43.9427 45.182 46.4205 47.6949 49.2019 50.6108 52.0115 53.3687 54.6582 56.4781 57.9547 59.7065 61.311 63.1596 63.655 64.0965 64.5362 64.974 65.347 65.4989 65.6506 65.8021 65.9707 66.1536 66.7832 67.2643 67.7753 68.2958 68.5936 68.6363 68.6791 68.7218 68.7644 68.797 68.9834 69.1541 69.3164 69.4702 69.8338 69.3592 68.9743 68.5497 67.9911 66.9721 66.574 65.6108 63.9493 62.549 61.3536 60.9502 60.3277 59.7309 59.2841 58.8201 58.6788 58.5374 58.3958 58.254 58.1344 57.4262 56.7098 55.99 55.1544 54.8053 54.2876 53.7423 53.1687 52.4215 51.6215 51.773 51.8011 51.5046 51.3539 51.2291 51.3914 51.3479 51.1201 51.2295 50.8953 51.3743 51.5316 51.5116 51.361 51.201 51.1999 51.1987 51.1976 51.1965 51.1951 50.8853 51.1777 51.5128 51.8017 51.2955 51.4959 51.6507 51.5654 51.1156 50.5903 50.9263 51.1005 50.8208 50.2779 49.5949 49.4474 49.1222 48.793 48.5744 48.4009 48.4145 48.451 48.4874 48.5239 48.5601 48.7421 48.5425 48.3306 48.1173 47.7713 48.1731 48.4051 48.5723 48.2499 48.1528 48.8215 48.7651 48.6158 49.0751 49.3028 50.2078 50.0611 49.6207 49.1487 49.0566 49.2619 48.2066 47.1314 46.0362 45.2216 43.8593 42.4778 41.0776 39.6075 37.8136 32.746 26.7313 20.4036 14.0565 7.60872 6.19585 4.28518 2.29039 0.293394 -1.59672 -15.3237 -23.2545 -29.6277 -36.0585 -42.9262 -53.5798 -55.155 -56.9464 -58.9484 -63.0863 -63.9801 -64.8881 -65.8103 -66.7466 -67.8084 -67.2477 -66.6904 -66.8334 -67.2857 -68.4857 -66.6733 -63.3922 -59.0076 -54.6641 -50.3638 -46.431 -41.6611 -36.762 -32.5122 -30.3835 -29.1887 -28.49 -27.5126 -26.5358 -25.4167 -25.1083 -24.8002 -24.4925 -24.1852 -24.0332 -23.7069 -23.4195 -23.1383 -22.9794 -23.6181 -22.9 -22.3967 -23.4644 -23.4485 -23.6676 -18.9043 -14.5223 -13.161 -13.6798 -13.5064 -11.5676 -8.50325 -6.82556 -5.15126 -3.32955 -2.40141 -1.80256 -1.20381 -0.605149 -0.288413 0.488049 0.836465 1.18487 1.53325 1.85351 1.94362 2.03374 2.12387 2.21402 2.26118 3.18788 4.01649 4.84503 5.6735 6.27087 8.39248 10.0454 11.6965 13.3458 14.6119 18.1508 21.3926 24.6321 27.3893 29.5201 35.6856 39.718 44.2105 49.0756 51.9363 59.5923 64.2896 69.1768 73.9386 75.7638 83.2398 84.0965 84.4038 82.5314 81.7001 82.2885 82.5263 82.5071 83.2851 84.1051 84.5354 84.5917 84.6461 84.6985 84.7467 85.4758 86.1265 86.7012 87.2024 84.4594 84.7321 84.9845 84.8466 84.6877 84.5297 89.1894 93.6552 94.7316 91.5401 84.3962
16.9517 16.9565 16.9614 16.9662 16.971 16.9759 17.2325 17.4798 17.7271 17.9744 18.2759 18.6468 19.0035 19.3602 19.7169 20.0826 20.5066 20.9219 21.3372 21.7525 22.1676 22.4181 22.6678 22.9174 23.167 23.3915 23.6296 23.8676 24.1057 24.3484 24.5907 25.1747 25.7463 26.3179 26.8894 27.4605 28.145 28.8285 29.5118 30.1951 30.8889 31.734 32.5547 33.3751 34.1955 35.0167 36.0215 37.0148 38.0079 39.0009 40.004 41.2737 42.482 43.6898 44.8973 46.1208 47.6853 49.1379 50.5862 52.0339 53.5137 55.5735 57.3052 59.0361 60.7662 62.5684 64.8009 66.7481 68.6904 70.7862 73.3552 75.0983 76.4103 77.9537 79.5024 80.8365 81.733 82.6268 83.5179 84.4064 85.2169 86.2266 87.3074 88.0596 88.4068 89.1035 88.8131 88.1799 87.6751 86.6006 85.5212 84.18 82.4932 79.8727 75.614 70.5704 68.444 66.4378 64.746 62.5806 59.7048 57.8826 54.6222 51.5099 48.3971 44.3092 44.0566 43.8039 43.5512 43.2984 43.0747 39.834 36.4831 33.1157 29.7322 26.9447 24.7653 22.8322 20.8069 18.7607 17.3394 17.2088 17.1065 16.9898 16.706 16.4215 16.6338 16.7566 16.8735 17.0864 17.3148 17.3803 17.4454 17.5099 17.5738 17.6332 17.9218 18.1841 18.4434 18.6981 18.9005 19.3517 19.7951 20.1993 20.536 20.8762 21.5151 22.067 22.7444 23.4968 24.1284 25.1034 26.2701 27.0718 27.6775 28.4018 29.7791 30.8399 31.73 32.7711 33.5407 35.8755 37.1468 38.2103 39.1932 39.9886 41.6211 42.5587 43.4661 44.3432 44.8601 45.7726 46.6154 46.9529 47.1902 47.0948 50.4122 52.3648 54.5588 54.1945 52.5234 54.6651 56.4061 55.309 54.1276 50.2894 52.8192 52.3982 50.1945 47.9726 46.1831 40.7922 33.4577 20.8271 6.68742 -4.42372 -5.74004 -7.06197 -8.08785 -8.6267 -9.18533 -10.7052 -14.3232 -17.952 -21.5915 -24.3929 -25.1123 -26.0388 -27.0874 -28.1888 -29.2191 -27.9065 -27.721 -28.6477 -29.5771 -30.449 -33.2056 -37.2924 -40.8848 -42.4949 -44.394 -43.6162 -43.5173 -43.9009 -44.3082 -45.5685 -45.4762 -45.4311 -45.4762 -45.5284 -50.1691
16.5178 16.521 16.5241 16.5273 16.5304 16.5336 16.752 17.015 17.278 17.5316 17.8681 18.2197 18.5728 18.9221 19.2714 19.6368 20.0598 20.4632 20.8665 21.2698 21.6763 22.1591 22.6271 23.095 23.5628 24.0335 24.6054 25.1624 25.7193 26.2761 26.8436 27.5309 28.2006 28.8702 29.5397 30.2104 31.0406 31.8528 32.6648 33.4766 34.304 35.3282 36.3271 37.3258 38.3243 39.3196 40.4553 41.5775 42.6994 43.821 44.8111 44.9798 45.1485 45.3172 45.4859 45.6524 47.2925 48.8786 50.4642 52.0493 53.629 55.7503 57.8072 59.8636 61.9193 63.9584 67.0195 69.7436 72.4598 75.1727 77.8268 82.279 86.3043 90.314 94.307 100.467 100.739 101.01 101.281 101.552 101.803 104.481 106.916 109.311 111.68 113.959 118.515 122.843 125.157 127.28 131.593 133.386 134.583 135.146 135.834 136.321 137.14 136.484 135.475 134.731 134.336 133.992 133.617 132.914 131.269 128.51 127.751 126.988 125.982 124.922 123.826 119.433 113.488 102.946 92.1492 80.0582 79.9298 79.8012 79.224 78.5238 77.8255 57.1206 30.8344 4.60291 -8.1418 -22.133 -48.8823 -52.1394 -55.5312 -49.9522 -41.0554 -42.2793 -43.5152 -44.7628 -49.0877 -50.8484 -44.6551 -38.672 -32.8449 -27.1811 -24.4007 -18.2081 -14.1463 -11.7762 -10.7831 -8.60273 -5.49447 -3.85751 -2.99374 -2.31472 -2.34508 -1.80997 -1.3845 -1.09552 -0.81941 -0.481496 -0.796548 -0.405519 -0.00905993 0.454299 2.04421 1.57205 1.94534 2.28848 2.58295 3.10169 2.17598 2.08427 1.92398 1.73626 2.65091 0.0720268 -0.454298 -1.03552 -1.60081 -1.74791 -3.39854 -6.54266 -8.39523 -10.7885 -13.9673 -14.7797 -16.4047 -18.489 -20.5596 -22.7874 -22.7341 -22.7231 -22.7186 -22.7153 -22.7132 -22.8778 -23.317 -23.6587 -23.9805 -24.0101 -25.3109 -26.8394 -28.6803 -30.8378 -33.6718 -34.3403 -34.9624 -35.5363 -36.1117 -36.6783 -39.1465 -40.2164 -40.909 -41.618 -42.3467 -43.4855 -44.6137 -45.7876 -47.0062 -48.1915 -50.0294 -51.8883 -53.6175 -53.6335 -53.6519 -53.9106 -54.194 -54.334 -54.2318 -54.1228 -54.4804 -54.5356 -54.5732 -54.8672 -55.147 -55.4804 -55.8062 -55.7964 -55.68 -55.565 -55.8533 -56.1458 -56.4802 -56.8311 -57.1669 -57.3249 -57.4868 -57.6411 -57.6868 -57.7345 -57.9802 -58.2261 -58.0928 -57.7671 -57.4572 -57.7993 -57.93 -57.8845 -58.4024 -58.9474 -59.4137 -59.8792 -60.0768 -59.9733 -59.8719 -60.5419 -61.1662 -61.7466 -62.2117 -62.6782 -64.4271 -64.7447 -68.2782 -71.2176 -71.7194 -72.2897 -72.8627 -72.2392 -71.3061 -70.3851 -69.0608 -67.7493 -66.7378 -65.2023 -64.8164 -61.3599 -57.9016 -54.5724 -52.1795 -50.8148 -46.2273 -41.6881 -38.5866 -39.3748 -40.1184 -38.6755 -37.2874 -36.5202 -37.1248 -38.2025 -39.4977 -39.8329 -39.2047 -38.0512 -36.4822 -36.5928 -36.0936 -35.3978 -34.6553 -34.0716 -32.9517 -32.3239 -31.695 -31.0651 -30.2933 -28.7407 -27.2082 -25.7408 -24.3521 -23.7899 -17.6213 -16.9021 -16.6841 -16.4475 -21.4295 -21.2867 -21.1669 -21.064 -20.9737 -26.8226