# vtk DataFile Version 2.0
sampleSurface
ASCII
DATASET POLYDATA
POINTS 28504 double
-0.0506574 3.25261e-19 0
-0.062995 -2.1684e-19 0.00286487
-0.0639362 -2.1684e-19 0
-0.0646056 0 0.00195427
0.0718605 0 0
0.0722397 0 0.000129588
0.0723242 0 8.8702e-05
0.0723674 0 0
-0.076776 0 0.00490487
-0.078839 0 0
-0.0819432 0 0.00117323
-0.0837712 0 0
-0.085993 2.1684e-19 0
-0.0861209 -4.33681e-19 0.00148642
-0.0866036 0 0.000171251
-0.087847 -1.0842e-19 0.0116384
-0.0881965 0 0.0112786
-0.0900038 0 0.0123483
-0.090643 -3.25261e-19 0.0118454
-0.0906976 0 0.012618
-0.0909317 -1.0842e-19 0.0126548
0.0920871 0 0.00529696
0.0944643 -4.33681e-19 0.00387292
-0.0963608 4.33681e-19 0.0080336
-0.0983472 4.33681e-19 0.00089309
0.000489984 0 0.0989926
0.000298106 0 0.0989974
9.98871e-05 0 0.0990149
0.000485974 6.23416e-19 0.0991407
9.43293e-05 3.52366e-19 0.0991717
0.0156258 5.42101e-20 0.0985799
0.0159862 0 0.0985709
0.0163227 0 0.0985881
0.0156486 2.71051e-19 0.0988618
0.0163169 0 0.0988454
0.100273 8.47033e-22 0
0.100527 0 0.000376117
-0.0996924 -4.33681e-19 0.0164862
-0.0153342 5.42101e-20 0.0999685
-0.0157017 0 0.100002
-0.0153491 -5.96311e-19 0.100255
-0.0160629 -5.42101e-20 0.100255
-0.0159354 5.42101e-20 0.100286
0.0223804 0 0.099047
0.101881 8.47033e-22 0
0.101881 8.47033e-22 0.000192208
0.00827793 8.67362e-19 0.102722
-0.00796103 1.73472e-18 0.103582
0.0306339 0 0.0993579
0.0310997 1.0842e-19 0.0993793
-0.104275 -1.0842e-19 0
0.0306546 0 0.0997274
0.0318162 1.0842e-19 0.0994922
0.0315991 -7.58942e-19 0.099709
-0.104638 1.0842e-19 8.05868e-05
-0.105286 0 0
0.0238304 -1.73472e-18 0.102593
-0.105295 0 0.00275104
-0.104379 0 0.0178795
-0.106012 0 0
-0.104494 0 0.0179005
-0.106059 5.42101e-19 0.000135996
-0.104685 0 0.0179984
-0.105106 0 0.0181935
-0.105158 0 0.0181645
0.106335 0 0.00903021
-0.105483 1.4456e-20 0.0163085
0.106366 -1.35525e-20 0.00899459
0.10656 1.35525e-20 0.00909066
0.106652 0 0.00904642
0.106666 0 0.00912853
0.106703 0 0.00913178
0.0389247 0 0.101918
0.00012995 -3.95282e-21 0.110474
0.0163414 1.31761e-21 0.110172
-0.0191416 0 0.109734
-0.0198114 0 0.111366
-0.0196586 1.35525e-20 0.111396
-0.0197683 0 0.111404
-0.0198283 0 0.11142
-0.0197388 -1.35525e-20 0.111445
-0.0196539 0 0.111508
-0.0197831 0 0.111488
-0.0198447 0 0.111498
0.113578 0 0.00666074
0.0322092 0 0.109262
0.0511405 0 0.102094
0.0507775 -4.33681e-19 0.102531
-0.114165 4.33681e-19 0.00989877
-0.114708 0 0.0016754
0.114835 -4.33681e-19 0.000849152
0.0527008 -2.1684e-19 0.102434
0.0539343 0 0.102711
0.0510091 6.50521e-19 0.104226
0.0542576 1.0842e-19 0.1029
0.00866346 8.67362e-19 0.116531
-0.00813442 0 0.116649
0.0533187 3.25261e-19 0.104414
0.117703 -4.33681e-19 0.0134268
0.0243545 8.67362e-19 0.116163
-0.116704 0 0.0232834
-0.119064 0 0.0193726
0.0610898 -8.67362e-19 0.104043
0.0416551 8.67362e-19 0.113803
0.121295 0 0
0.121321 0 6.14248e-06
0.12137 6.77626e-21 0
0.121373 2.25875e-21 0.00252027
0.121429 0 0
-0.122507 0 0
-0.122533 6.50521e-19 7.07844e-05
-0.122882 0 0
-0.122883 0 0.00398503
0.064079 0 0.105101
0.12225 0 0.0146332
0.122283 0 0.0146366
0.122337 0 0.0146642
-0.123218 0 0
-0.123225 0 8.56715e-05
0.122422 0 0.0146785
0.064445 1.0842e-19 0.105292
0.123128 -4.51751e-21 0.0125447
0.0651888 0 0.105352
0.00149266 0 0.124291
0.0663232 -1.0842e-19 0.105687
0.0663364 -1.0842e-19 0.105881
-0.0199799 -1.35525e-20 0.123498
-0.0197045 5.96311e-19 0.123562
-0.0198916 0 0.123555
-0.0198223 0 0.123652
-0.0200161 1.35525e-20 0.123621
-0.0198901 0 0.123736
-0.0196768 2.43945e-19 0.123771
0.0166349 0 0.124281
-0.0199415 1.35525e-20 0.123815
0.064818 -3.61401e-20 0.107444
-0.12525 -6.77626e-21 0.0142145
0.0573201 8.67362e-19 0.114086
0.0323877 -2.71051e-20 0.123612
-0.125881 6.77626e-21 0.0277784
-0.125952 0 0.0278224
-0.126005 6.77626e-21 0.0278346
0.072535 -4.33681e-19 0.107441
-0.127356 -6.77626e-21 0.0249919
0.130261 4.33681e-19 0.00908994
0.129659 0 0.0169822
0.130817 4.33681e-19 0.00162317
-0.131264 0 0.00211156
0.0484574 -5.42101e-20 0.122385
-0.00760337 -4.33681e-19 0.131724
0.00919562 8.67362e-19 0.13163
-0.132124 -4.33681e-19 0.0100559
0.0244946 0 0.131479
0.0778716 0 0.109298
0.0779326 3.25261e-19 0.109494
-0.133149 8.67362e-19 0.0222073
0.0788766 -1.0842e-19 0.109597
-0.132267 4.33681e-19 0.0303529
0.0801537 0 0.110089
0.0801098 -4.33681e-19 0.110287
-0.0147993 0 0.135518
0.071423 4.33681e-19 0.116289
0.135315 0 0.0200291
0.135373 0 0.020051
0.0402991 1.73472e-18 0.130822
0.135459 6.77626e-21 0.0200798
0.0780214 0 0.11258
-0.0141346 0 0.13704
-0.0141608 -1.69407e-21 0.137038
-0.0141314 0 0.13707
-0.0127443 1.69407e-21 0.137217
0.136828 1.807e-21 0.016803
0.138728 -6.77626e-21 8.05679e-06
0.138767 -6.77626e-21 0
0.138808 0 1.00997e-05
0.138767 -3.38813e-21 0.00387315
0.0639079 -2.71051e-20 0.123344
0.00285256 0 0.138951
-0.139189 0 0
-0.139193 -2.71051e-20 4.19365e-05
-0.139353 0 0
-0.139356 -2.71051e-20 0.00449669
-0.139508 0 0
-0.139509 -2.71051e-20 4.45033e-05
-0.0736461 0 0.1185
-0.0736765 3.38813e-21 0.118505
-0.0736512 -2.71051e-19 0.11856
-0.0737242 3.38813e-21 0.118532
0.0170377 9.03502e-21 0.139454
-0.140488 -2.25875e-21 0.0169861
-0.137457 0 0.0340342
-0.137476 0 0.0340531
-0.137521 6.77626e-21 0.0340709
0.0560931 0 0.130714
-0.0630244 0 0.127609
-0.0630736 3.38813e-21 0.127587
-0.0630949 3.38813e-21 0.127604
-0.0630162 3.38813e-21 0.127654
-0.0630607 3.38813e-21 0.127642
-0.0631099 -5.6243e-19 0.127639
-0.0767264 -3.04932e-20 0.120268
-0.139458 -3.16226e-21 0.0306312
0.0323077 9.03502e-21 0.139267
-0.074725 3.38813e-21 0.122842
0.0895517 -8.67362e-19 0.113884
0.0855638 -8.67362e-19 0.118219
0.0481294 0 0.138624
0.14715 -4.33681e-19 0.00208459
0.146837 -4.33681e-19 0.0106817
-0.147274 4.33681e-19 0.0022809
-0.00627729 -4.33681e-19 0.147562
0.0789817 0 0.124875
-0.147614 0 0.0109443
-0.0700821 0 0.131069
0.00838968 -4.33681e-19 0.148422
0.147159 -1.73472e-18 0.0247926
0.0244717 0 0.147381
-0.147799 1.73472e-18 0.0243967
0.0717028 0 0.131591
0.151094 1.69407e-21 0
0.151094 -1.69407e-21 0.00430549
-0.057233 6.77626e-21 0.140466
-0.0572776 0 0.140507
-0.0572257 -6.77626e-21 0.140553
-0.0573568 -6.77626e-21 0.140503
-0.057305 0 0.140554
-0.0572765 0 0.140585
-0.0573563 7.65718e-19 0.140588
-0.0571969 6.77626e-21 0.14067
0.150513 0 0.0207855
0.0400398 -1.73472e-18 0.146987
0.0639055 -2.71051e-20 0.139001
-0.148229 -1.73472e-18 0.0394773
-0.0629095 -1.01644e-20 0.140043
0.0993584 0 0.118252
0.0993652 -5.42101e-19 0.118304
-0.0850603 4.33681e-19 0.129269
0.0996556 0 0.11839
0.0998498 2.71051e-20 0.118487
0.0998096 0 0.118542
-0.155096 0 0
-0.155097 0 2.49427e-05
0.155125 -1.69407e-21 3.59083e-06
-0.155183 0 0
0.155125 6.45439e-19 0.00444521
-0.155183 0 0.00465495
-0.155267 0 0
-0.155268 0 2.53063e-05
-0.00653262 0 0.155137
-0.00627198 0 0.155211
0.152881 0 0.0285262
-0.0064328 0 0.155391
-0.00627521 2.71051e-20 0.155524
-0.151629 0 0.0352588
-0.00633319 0 0.155633
0.155774 3.38813e-21 0.00813482
0.0977074 1.807e-20 0.121858
0.0170078 -4.51751e-21 0.155378
-0.155725 -6.77626e-21 0.0173219
0.0558552 8.67362e-19 0.146685
0.0881519 -4.33681e-19 0.131261
0.157555 -4.51751e-22 0.0159563
0.0321629 4.51751e-21 0.155317
0.155912 -1.69407e-21 0.0299959
-0.0548768 0 0.149218
0.156403 -8.47033e-22 0.0290841
-0.00451089 0 0.159143
-0.0785781 2.25875e-21 0.138603
-0.0552119 5.42101e-20 0.149932
-0.157017 -1.12938e-21 0.0302011
-0.0559665 -3.79471e-19 0.14991
0.157935 -1.50584e-21 0.0261526
-0.0554549 0 0.150228
-0.154087 0 0.0442871
-0.0553514 2.71051e-19 0.150814
-0.0560577 3.79471e-19 0.150709
-0.00370518 -2.71051e-20 0.160771
0.104857 4.33681e-19 0.121949
-0.00355413 6.77626e-20 0.160801
-0.00365117 1.35525e-20 0.1609
0.0790895 0 0.140173
-0.00370256 0 0.160946
-0.00355014 0 0.160964
-0.00374372 0 0.160985
0.0478442 -1.35525e-20 0.154893
-0.0701737 0 0.146593
-0.162958 0 0.00233059
-0.156524 0 0.0457885
-0.156532 0 0.0457937
0.163095 4.33681e-19 0.002272
-0.163155 0 0.0111415
-0.0539692 0 0.154439
0.0716371 0 0.147154
0.16372 -8.67362e-19 0.0109135
-0.0538443 2.71051e-20 0.155004
-0.15858 2.11758e-22 0.0426538
-0.0535845 5.42101e-20 0.155301
-0.0537542 2.71051e-20 0.155433
0.00797658 -4.33681e-19 0.164313
-0.0540687 -2.71051e-20 0.155367
-0.0534733 0 0.155608
-0.0539929 -2.71051e-20 0.155603
-0.0537653 2.71051e-20 0.155834
-0.053394 0 0.156002
-0.0541524 -2.98156e-19 0.15585
0.0244705 -4.33681e-19 0.163327
0.16221 8.67362e-19 0.0319512
-0.098625 0 0.132795
-0.0985096 0 0.132934
-0.163834 -4.33681e-19 0.0243829
0.164041 -8.67362e-19 0.0234822
-0.0989761 0 0.133011
-0.0986386 0 0.133385
-0.0991553 -2.71051e-20 0.133124
0.110561 0 0.123997
-0.0990824 -4.60786e-19 0.133394
0.110523 -5.42101e-20 0.1241
0.110851 0 0.124143
0.111287 0 0.124399
0.111236 1.0842e-19 0.124461
0.0637087 9.03502e-21 0.154625
0.102865 4.33681e-19 0.132674
0.10895 0 0.127735
0.0398963 8.67362e-19 0.163197
-0.164308 -8.67362e-19 0.0382154
0.0946646 -5.42101e-20 0.140304
-0.162327 -4.33681e-19 0.0480596
-0.0884744 4.33681e-19 0.144452
-9.71046e-06 4.23516e-22 0.169664
0.000166543 0 0.170088
0.000408699 0 0.170103
-0.17072 0 0
-0.170773 -6.77626e-21 0
-0.170825 -6.77626e-21 1.56697e-05
-0.170773 -4.51751e-21 0.00468902
0.166965 0 0.0361826
0.166999 -6.77626e-21 0.0362002
0.170934 -6.77626e-21 1.58986e-05
0.167055 0 0.0362229
0.170989 6.77626e-21 0
0.171045 0 0
0.17099 0 0.004644
0.0872301 0 0.147557
0.017467 -4.51751e-21 0.170707
0.000835171 0 0.17191
-0.171009 0 0.0176594
0.0556436 -8.67362e-19 0.162903
0.169303 0 0.0322672
0.169333 5.29396e-23 0.0321454
0.169317 5.29396e-23 0.0322427
0.169429 -2.11758e-21 0.0322323
0.171598 -2.25875e-21 0.0176964
-0.0795497 -1.35525e-20 0.15453
0.170942 2.64698e-23 0.0332669
0.0321247 -9.03502e-21 0.171253
-0.0577178 0 0.164416
-0.166326 0 0.0526363
-0.166351 0 0.0526567
-0.171769 1.05879e-22 0.0315344
0.0793992 -6.77626e-21 0.155604
-0.169068 1.69407e-21 0.0488654
-0.169064 0 0.0488981
0.120034 0 0.129853
-0.0713441 8.67362e-19 0.162074
0.11611 8.67362e-19 0.134549
0.047662 -1.35525e-20 0.17122
0.0714249 8.67362e-19 0.162922
[...]
POINT_DATA 28504
FIELD attributes 1
U 3 28504 float
12.7768 0 0
6.88572 0 0
16.0443 0 0
13.3853 0.608159 -1.61303
11.1014 0 0
10.7467 0 0
11.0514 -0.0943132 0.082132
11.2536 0 0
16.382 -1.27796 -3.92165
20 0 0
19.121 0.365103 -0.96837
20 0 0
20 0 0
19.3577 0.365117 -0.446082
19.477 0.296391 -0.0467218
0 0 0
2.17226 0.198678 -0.526957
0 0 0
1.62238 0.192063 -0.234653
0 0 0
1.31205 0.207641 -0.473779
4.57139 0 0
13.4764 -0.572844 3.8336
16.6577 -0.696273 -2.35066
17.4164 -0.715551 -0.243478
0 0 0
0 0 0
0 0 0
0.0537126 0.00831138 -0.00469339
0.064666 0.0163002 -0.0157525
0 0 0
0 0 0
0 0 0
0.102582 0.0158734 -0.0089636
0.106712 -0.00119355 0.00929334
19.9975 -0.00189094 0.00121116
19.1714 0 0
14.189 -0.704046 -5.00839
0 0 0
0 0 0
0.117944 0.0297299 -0.0287308
0 0 0
0.144721 0.0382244 -0.0366628
0 0 0
20 0 0
19.469 -0.0496132 0.154646
1.85357 -0.413503 -0.2357
1.68539 -0.0959068 -0.364364
0 0 0
0 0 0
20 0 0
0.13474 -0.101194 -0.0114887
0 0 0
0.144562 -0.18438 0.00165403
19.7539 0.139475 -0.0219862
20 0 0
2.39416 -0.887146 0.00807362
17.0322 -0.671556 -1.41184
0 0 0
20 0 0
0.576962 0.0913084 -0.208341
19.7688 0.120681 -0.0329617
0 0 0
0 0 0
0.567995 0.09437 -0.234489
0 0 0
15.5706 -0.68573 -4.28434
0.198203 0.0495216 0.0631646
0 0 0
0.153482 0.0376936 0.0421347
0 0 0
0.151877 0.0299548 0.0372398
2.07389 -1.96628 0.187816
2.41506 -0.44541 0.272122
3.03031 -0.762335 0.381327
0 0 0
0 0 0
0.00658607 -0.007163 -0.000821685
0.0155878 0.000173367 0.00513359
0 0 0
0.0245383 -0.000507216 -0.00318516
0.0401882 -0.00342729 0.00407515
0.0405884 -0.0015591 0.00376401
0 0 0
12.9363 -0.643432 3.1916
3.12808 -1.32474 0.461779
0 0 0
0.28562 -0.364289 0.00326796
16.6257 -0.591172 -3.12173
17.272 -0.610302 -0.413842
13.9819 -0.561709 1.12376
0 0 0
0 0 0
0.724327 -0.244413 0.0570726
0.344894 -0.679227 0.199475
3.38599 -0.703767 0.843402
3.09802 -0.531766 0.891456
0.951652 -0.377288 0.0588128
12.7931 -0.546148 3.05819
4.16909 -0.931829 0.837425
15.0435 -0.630132 -6.06933
15.995 -0.670462 -4.74115
1.60265 -3.43514 0.747338
3.83052 -1.4774 0.800786
20 0 0
19.9492 0.0238434 0.00794637
20 0 0
13.0574 -0.62465 2.02091
19.9588 0.0164299 0.00383422
20 0 0
19.8797 0.0628134 -0.0171562
20 0 0
16.9888 -0.561614 -1.42418
0 0 0
0 0 0
0.126002 0.0248516 0.0308954
0 0 0
20 0 0
19.8835 0.0501133 -0.018795
0.0946653 0.00972947 0.0296812
0.321669 -0.633488 0.186042
12.2717 -0.581839 3.28011
0 0 0
4.08953 -1.11676 0.300562
0 0 0
0.489984 -0.667658 0.193212
0 0 0
0.0581486 -0.00495897 0.00589637
0.0587612 -0.00225716 0.00544928
0.0545426 -0.00687356 -0.0117079
0 0 0
0.0941802 -0.0315485 -0.0339464
0.0990122 -0.0322141 -0.0252907
4.93736 -1.42565 0.276406
0 0 0
3.52139 -3.49238 0.716065
16.3562 -0.599977 -3.52406
4.7687 -2.38969 0.596297
5.67493 -1.78074 0.229013
0.0931522 0.0154769 -0.0384566
0 0 0
0.0791457 0.0138225 -0.0371408
2.94528 -4.60842 0.925477
15.3995 -0.612956 -5.44006
11.7479 -0.842145 3.28912
11.704 -0.362652 3.57924
13.2251 -0.487358 0.763275
17.2289 -0.494716 -0.467239
6.21841 -2.32627 0.214271
4.44137 -1.36537 -0.269483
5.35351 -1.819 -0.223039
16.738 -0.542754 -2.0016
6.76231 -2.19643 -0.307422
0 0 0
0.456087 -0.62147 0.179846
16.0596 -0.563704 -4.31041
0 0 0
14.5075 -0.564725 -6.68269
0 0 0
0.442172 -0.458819 0.236932
0 0 0
6.09471 -3.44973 0.566478
0.0748443 0.00769231 0.0234666
0 0 0
7.66919 -2.46867 -0.333231
0.0565166 0.0025124 0.0237401
4.91193 -4.3343 1.07154
0.00359554 -0.000873154 0.0023035
0.00122002 0.000247001 -4.40893e-05
0.00314538 0.00116557 0.00263231
0.464757 -0.141836 0.0106305
12.093 -0.557192 3.72612
19.9731 0.0107152 0.00250057
20 0 0
19.9733 0.0100332 0.00207112
12.9039 -0.615392 1.78467
7.32083 -3.13509 0.256979
5.70425 -1.74765 0.101651
20 0 0
19.943 0.0245306 -0.0092002
20 0 0
16.9107 -0.486933 -1.14636
20 0 0
19.9412 0.0199824 -0.00690192
0.00483589 -0.000288433 -0.000366524
0 0 0
0.0135876 -0.00741435 -0.00770061
0.0116301 -0.00270024 -0.0071932
6.77597 -2.3585 -0.0593759
16.3078 -0.526597 -3.19652
0.0460255 0.0080382 -0.0215985
0 0 0
0.0432865 0.00784879 -0.0225682
8.63663 -3.00578 -0.209349
0 0 0
0.00250973 0.000800052 -0.000798158
0.00578098 -0.000152462 -0.00127271
0 0 0
0.00564692 -0.00123639 -0.00520448
0.0110149 -0.00601052 -0.00624259
0 0 0
15.1196 -0.552167 -5.76153
7.96697 -2.81256 -0.187235
0.671673 -0.308043 -0.359287
3.77986 -5.19214 1.50685
7.00715 -4.38723 1.41092
8.9267 -3.19815 -0.174869
13.564 -0.43231 0.607658
12.989 -0.736724 2.72349
17.0631 -0.446165 -0.35399
6.15783 -1.43641 0.564379
8.259 -3.96659 0.714295
16.5542 -0.458892 -1.91742
3.1199 -2.08851 -1.60637
6.82714 -2.33066 0.312395
10.928 -0.333068 4.30285
8.15169 -3.07891 -0.0121073
15.8897 -0.534584 -4.5351
9.94089 -3.72096 0.0568886
20 0 0
13.4255 -0.568777 1.56158
0 0 0
0.00908734 -0.00198967 -0.00837535
0 0 0
0.0177259 -0.00967249 -0.0100459
0.0155567 -0.00318655 -0.0075493
0.019387 -0.0128711 -0.0129498
0.0215432 -0.0106901 -0.0119188
0 0 0
13.39 -0.601028 5.11748
9.27785 -3.49489 -0.105316
9.80065 -3.64579 0.0251439
14.1564 -0.554804 -7.25832
0.823049 -0.377468 -0.44026
0 0 0
0.101196 -0.105006 0.0542246
2.60786 -0.828676 -1.47226
0 0 0
0 0 0
0.198797 -0.166747 0.0766935
20 0 0
19.9671 0.0111995 -0.00386832
19.9947 -0.00334892 0.000598052
20 0 0
13.5959 -0.55315 1.48891
16.7959 -0.427532 -0.994177
20 0 0
19.9664 0.00944933 -0.00326798
0 0 0
0.0538808 0.0199664 0.0450918
0 0 0
0 0 0
0.0315138 0.0171789 0.0177478
15.012 -0.535866 -5.99535
0 0 0
13.5082 -0.583558 2.26622
7.14812 -5.14355 1.44793
7.60854 -3.31806 0.171186
16.3048 -0.461851 -2.72993
10.1351 -3.83464 -0.0431051
9.9636 -4.26994 0.787622
13.3575 -0.648293 3.89096
8.52742 -3.6978 0.117561
0.0103876 -0.000204075 0.00477667
0 0 0
2.88034 -0.09236 1.2648
0 0 0
3.10731 -1.42959 -1.65907
0.181279 -0.120352 -0.121087
15.5505 -0.500911 -4.73942
0.200413 -0.0994487 -0.110879
12.1049 -0.381915 5.31613
0.174754 -0.0771085 -0.0815266
0 0 0
0.267946 -0.254049 -0.111471
0.296934 -0.185139 -0.170588
0.111868 -0.0417098 -0.00901839
5.65619 -6.38231 1.85354
0.097546 -0.0380124 -0.00961651
0.0541325 -0.0234281 -0.00881386
10.2333 -4.0379 0.457361
0.105 -0.06399 -0.0110375
0.103822 -0.0609556 -0.0107358
0 0 0
9.13442 -3.83658 0.186237
3.72198 -2.12411 -1.85472
16.9695 -0.392567 -0.300124
0.00568489 -0.00145685 -0.00296779
0.00652194 -0.00165927 -0.0035728
13.8885 -0.412924 0.554483
16.5379 -0.41364 -1.57751
0 0 0
10.4747 -4.02135 0.297507
13.9224 -0.665338 2.34085
0 0 0
13.7073 -0.49569 -6.29789
0 0 0
0.0449671 0.0340665 -0.0505087
7.37124 -3.81968 0.134158
0.102987 -0.0683736 -0.0687914
0 0 0
0.0947355 -0.0333702 -0.0385291
0.082205 -0.0368105 0.00371635
0 0 0
0.15265 -0.144732 -0.063505
8.10649 -4.10665 0.233707
11.1368 0.00413983 6.13486
0 0 0
0.0489792 -0.0249302 -0.0217467
16.2134 -0.442754 -2.99515
12.9005 -0.623917 5.40734
0 0 0
0.0602858 -0.0212002 -0.028421
0 0 0
0 0 0
0.0355853 -0.0091943 -0.0263486
0.318546 -0.26719 0.122892
0 0 0
0 0 0
0.314127 -0.158472 0.170664
9.32249 -3.83246 0.414116
10.4016 -4.62861 1.43783
8.29907 -5.52367 2.36734
8.61474 -4.11688 0.343091
15.119 -0.490053 -5.39004
10.3011 -4.32153 1.11771
13.4665 -0.516712 -7.79927
2.95096 -0.675808 -1.68077
0 0 0
0.00126245 -0.000199447 0.000466812
0.0920855 -0.0425089 0.00944202
19.9855 0.00409052 -0.00141467
20 0 0
19.9837 0.0038867 -0.00128459
16.7404 -0.380025 -0.831305
0.0467743 0.00165781 0.0245106
0 0 0
19.9712 -0.0176412 0.00316262
0.0447297 0.00340522 0.0271113
20 0 0
19.9752 -0.0140554 0.00252882
14.1162 -0.526712 1.30788
10.5125 -4.15885 0.704427
6.73691 -3.13541 0.65648
0 0 0
16.3333 -0.406267 -2.14252
8.527 -3.91264 0.552367
12.1702 -0.338975 6.03048
12.2567 -0.343093 6.05227
12.2462 -0.341045 6.06813
12.255 -0.342573 6.06667
13.8179 -0.6533 3.69654
3.9777 -1.97516 -2.18884
12.2123 -0.332919 6.18839
7.15214 -3.21438 0.764425
5.51353 -4.97741 -2.12126
0.0223362 -0.00564669 -0.012736
0.02818 -0.00653242 -0.017645
15.5965 -0.451146 -4.13715
9.20691 -3.75436 0.782477
14.047 -0.504499 -6.8858
14.0451 -0.505931 -6.88859
7.48661 -5.8456 3.27122
5.15117 -3.35478 -2.75299
10.2847 -5.04588 3.39062
7.286 -3.11536 0.894839
8.10302 -3.55961 0.865166
16.9106 -0.349613 -0.245964
2.30369 -0.439458 -1.76553
14.1957 -0.411793 0.501337
0 0 0
10.3224 -4.58094 2.41959
0 0 0
0.0142231 -0.00367488 -0.0105313
16.4865 -0.366586 -1.35678
0 0 0
0.01399 -0.00363878 -0.011125
14.4881 -0.647703 2.02944
0 0 0
0.126027 -0.0564335 0.00569747
10.3144 -4.23899 1.55731
0.233875 -0.221745 -0.0972965
0 0 0
5.61668 -2.24303 1.08687
0.138747 -0.0893878 -0.0352683
0.128547 -0.0519712 0.147165
16.087 -0.401471 -2.65489
0 0 0
13.9935 -0.684283 4.92765
0.208127 -0.239877 -0.0667811
3.23104 -1.02616 -2.0557
10.6934 -0.0123855 6.769
5.7489 -2.30457 1.20745
9.04649 -3.69706 1.32321
7.02741 -2.90223 1.04546
15.0011 -0.473348 -5.51485
6.05076 -2.27171 1.30763
0 0 0
4.10356 -1.67065 -2.48913
5.07921 -4.55057 -2.24452
7.79067 -3.29483 1.24945
12.9523 -0.516417 7.23435
13.0762 -0.530707 -8.34014
19.9899 0.00240405 -0.000794559
20 0 0
19.9887 0.00237153 -0.000693861
16.7037 -0.338883 -0.700894
20 0 0
19.9475 -0.0297529 0.00535306
20 0 0
14.5494 -0.51076 1.1458
20 0 0
19.951 -0.0264354 0.00487314
0 0 0
0.598701 -0.302036 0.325273
16.3147 -0.362348 -1.79044
5.96776 -2.17108 1.3756
14.5409 -0.653235 3.24453
0 0 0
6.59553 -2.62957 1.22873
13.8384 -0.514292 -6.95566
15.8304 -0.394832 -3.10642
9.44659 -4.88136 4.29049
15.7061 -0.403252 -3.44399
0 0 0
0.839628 -0.299392 0.617278
4.66222 -3.52934 -2.74448
2.58319 -0.417513 -2.12089
0 0 0
0.0397247 -0.0223298 0.00292035
0 0 0
10.2872 -4.40353 3.33849
0.0115291 -0.00554597 0.00427981
0 0 0
4.72091 -5.10769 -1.33067
2.548 -0.556399 -1.97815
4.80627 -0.989586 1.76257
13.7522 -0.607944 5.8178
8.91253 -3.66953 2.30955
0.0398508 0.00303379 0.0241541
0 0 0
0.0385815 0.0088332 0.0312821
3.06386 -0.738676 -2.176
5.50727 -1.96286 1.39351
7.56437 -3.09938 1.78401
14.6548 -0.452424 -5.44656
11.8513 -0.24624 7.46859
5.01508 -0.952406 1.77819
0.240453 -0.135162 0.0176769
0.190306 -0.0991097 0.0188155
4.93707 -4.79806 -2.67707
0.0671216 -0.0314241 0.0034486
16.8698 -0.312234 -0.194817
0.0702959 -0.0338151 0.026095
0.0857069 -0.00933983 0.0494593
0 0 0
16.492 -0.32963 -1.14745
14.5826 -0.407864 0.462175
0.000746444 -0.000552832 0.000428525
0.0383256 -0.00888429 -0.0239978
0 0 0
14.9745 -0.607331 1.77851
0.0386568 -0.0120276 -0.0274292
3.76277 -2.22523 -2.65658
16.1897 -0.352885 -2.01362
6.28001 -2.39543 1.49489
13.1863 -0.484668 -7.37158
14.6824 -0.680202 4.34865
3.47289 0.319302 2.30762
4.95494 -0.965835 1.7313
15.5299 -0.385712 -3.62829
4.94782 -1.6766 1.41909
9.08096 -4.93426 5.91173
4.4784 -4.21551 -3.04285
13.3685 -0.564524 6.77814
3.90067 0.363652 2.2597
10.0546 -4.20641 5.3971
3.38566 -4.01908 -1.20244
0 0 0
0.12144 -0.0152264 -0.100861
9.1437 -3.66672 3.99075
0 0 0
0.119284 -0.0265096 -0.106181
0 0 0
0.0862156 -0.0258825 -0.0902072
7.61944 -3.00064 2.63131
2.42071 -0.641344 -2.05587
19.9925 0.00157298 -0.00046022
20 0 0
19.9917 0.00169624 -0.000461539
16.7073 -0.304733 -0.605159
20 0 0
19.9411 -0.0318196 0.00586568
0 0 0
14.2634 -0.435545 -5.67205
20 0 0
0.0620976 -0.0298714 0.0230517
14.9746 -0.494499 1.02703
0.075734 -0.00825304 0.0437042
20 0 0
19.9459 -0.0285247 0.00522147
0 0 0
0.0305147 -0.00627048 0.0099642
0.012968 -0.0197452 0.0117789
16.3782 -0.324359 -1.43493
16.3779 -0.324567 -1.43558
0.0777166 0.0406963 0.0634849
0 0 0
9.85682 0.372274 8.21395
4.65009 -0.897899 1.64109
4.17798 0.222751 2.15706
15.0282 -0.638662 2.9326
16.0744 -0.341239 -2.15531
6.21631 -2.22087 1.92756
2.89808 -1.25097 -2.45439
3.70713 -4.66972 -2.38005
1.39175 -1.61458 0.811415
15.904 -0.350662 -2.55947
0 0 0
14.277 -0.633129 5.32381
4.31258 1.3411 2.21866
11.9966 -0.420959 8.61731
11.8156 -0.460499 -8.53516
3.40198 -2.24151 -2.91938
4.83966 -1.53639 1.5236
4.17814 0.0244044 1.99366
8.11415e-05 0.000124863 -0.000157796
8.6839e-05 7.55979e-05 -2.00569e-05
0.00789948 -0.00594029 0.00134973
0 0 0
15.0998 -0.386552 -4.09939
2.43708 -4.34165 -1.40451
1.30158 -0.464113 0.956897
0 0 0
12.8438 -0.487661 -7.41572
4.65531 1.34599 2.25332
3.41404 -4.08938 -2.73155
12.7638 -0.494961 7.60131
4.60805 -0.79854 1.63114
16.8755 -0.2805 -0.17722
16.5399 -0.299785 -1.03275
15.0116 -0.398144 0.415606
0 0 0
8.98789 -3.64058 5.90004
15.3802 -0.593405 1.61537
8.69309 -3.07285 4.69198
16.2892 -0.316892 -1.5495
15.0663 -0.682325 4.04929
0 0 0
1.34129 -0.300844 1.17344
4.71008 2.28457 2.05757
1.78114 -0.668567 -1.84812
0 0 0
0.045664 0.0104547 0.0370246
6.62899 -2.10537 2.95075
0 0 0
0.0599638 0.0137884 0.05504
13.8588 -0.435432 -5.86941
4.70234 1.14518 2.22722
2.96083 -5.29288 -2.37839
3.97301 0.0263943 1.76864
15.5892 -0.347493 -3.07704
1.21149 -0.912281 0.201909
10.8094 0.0051771 8.73349
4.88756 -1.2726 1.79688
2.12155 -0.840674 -2.15285
2.66339 -1.28774 -2.62067
13.9727 -0.606271 6.1658
5.15183 2.43818 2.2561
0.0506187 -0.0157495 -0.0359169
0 0 0
0.0513085 -0.01731 -0.0401458
0.0151877 -0.023125 0.0137951
0 0 0
0.0909649 0.0476338 0.0743071
0 0 0
2.76966 -2.78221 -2.7282
0.0460787 0.0372113 0.114151
-0.00410212 0.0745062 0.0152919
4.4174 -0.598675 1.65861
0 0 0
0.0191491 0.0406478 0.000523459
0.0625129 -0.0532693 0.0370377
0.0982297 0.1482 -0.0710211
0.013472 0.0836332 -0.00335445
0 0 0
0 0 0
19.9971 0.000584883 -0.000161255
16.7289 -0.281161 -0.560517
12.1552 -0.463671 -7.63882
14.9582 -0.383415 -4.14242
-0.178908 2.66679 0.643176
20 0 0
19.9413 -0.0309496 0.00566536
1.88385 -3.32173 -0.931355
20 0 0
15.4111 -0.486526 0.915274
20 0 0
19.947 -0.0281473 0.00483034
4.46769 0.931094 2.10435
11.7012 -0.401918 8.84221
16.4094 -0.301755 -1.29358
15.464 -0.634118 2.66598
9.74916 0.468738 9.07934
5.36329 2.32117 2.34815
0 0 0
2.72046 -4.42761 -2.70114
15.9973 -0.315479 -2.14368
3.97063 0.0530269 1.66638
14.795 -0.651799 4.80808
0.198077 0.350383 -0.431549
5.55625 1.58999 2.24677
0 0 0
0.625565 1.02683 -0.436104
8.51974 -3.41034 6.81849
8.63324 -2.61702 6.53862
0.433306 0.742287 -0.600935
13.3988 -0.437218 -6.2101
7.41624 -1.99084 4.79523
0 0 0
1.15065 -0.273558 0.734801
15.3994 -0.343429 -3.2368
5.07561 1.98568 2.40943
5.43995 -1.123 2.81235
1.94589 -0.88133 -2.43501
0 0 0
0.121072 0.02784 0.11113
1.98314 -4.40702 -1.84053
0 0 0
0 0 0
0.106596 0.024098 0.117151
4.23158 0.830249 1.92621
13.2036 -0.532837 7.14641
0 0 0
0.0410659 -0.0223486 -0.0418085
6.08242 1.93718 2.44032
0 0 0
0.046731 -0.0337108 -0.0532015
0.0166246 -0.0123927 -0.0144674
0 0 0
4.54186 -0.274153 2.03209
10.6133 -0.0376549 9.20976
15.4678 -0.398213 0.355791
2.1061 -1.7126 -2.59381
15.8362 -0.58512 1.42605
10.7654 -0.472588 -8.59535
15.5755 -0.680088 3.56
14.5 -0.383424 -4.50845
3.96534 0.392285 1.66465
2.24061 -2.92585 -2.69224
0.952403 -3.28542 -0.6204
5.84921 0.344318 2.12392
4.6495 1.68664 2.25152
0.909467 1.77442 0.491868
6.3909 2.03411 2.53738
15.8314 -0.303803 -2.39772
11.8811 -0.478631 -7.51562
14.5792 -0.643974 5.45183
3.78521 6.09164 -3.97388
1.87125 -3.94348 -2.22311
4.05747 0.922787 1.78851
1.17717 -0.264034 1.02986
0 0 0
6.48395 1.1588 2.53565
7.73392 -1.87615 6.58903
12.5721 -0.488601 8.12188
0.516362 3.46678 -0.2617
1.45696 -0.543519 0.440242
15.2206 -0.33971 -3.32223
0 0 0
13.0944 -0.432529 -6.08007
6.91022 -1.13307 5.17932
0.0179658 -0.0129601 -0.0204534
6.27612 1.95297 2.56875
0 0 0
0.00635491 -0.00473721 -0.00553029
0.00747076 -0.00558253 -0.00836021
0.0207839 -0.0231948 -0.0288543
20 0 0
19.9464 -0.0284435 0.00488118
0.0167455 -0.0198653 -0.0251659
20 0 0
15.8475 -0.488362 0.773698
20 0 0
19.9513 -0.0268823 0.00398053
16.5624 -0.273775 -0.950203
1.27504 -4.58942 -1.63708
0.958936 -0.012916 1.01789
0 0 0
0 0 0
9.0365 0.427203 9.94908
16.904 -0.254909 -0.180698
15.8786 -0.644797 2.37246
4.34055 1.55327 2.02713
5.06194 -0.00879448 3.14051
0 0 0
0.0873604 -0.0744427 0.0517594
7.33016 1.79002 2.63194
0 0 0
15.2606 -0.682775 4.33705
-0.0361641 -0.0464398 -0.0138658
16.09 -0.28366 -1.8704
0 0 0
1.83817 -1.67705 -2.86392
3.88072 0.885804 1.87943
20 0 0
0.071784 -0.0242179 -0.0561667
0 0 0
0.0923614 -0.0376779 -0.0780494
14.3479 -0.3792 -4.47608
10.7201 -0.48463 9.96003
1.97853 1.43134 0.887936
0 0 0
15.6663 -0.304077 -2.55789
1.3857 -2.56178 -0.415084
0.154115 0.232515 -0.111427
0.309829 0.128022 -0.0161273
0 0 0
0.131126 0.122206 -0.0667816
3.84502 1.27976 1.76625
11.2375 -0.479961 -7.60154
1.58213 -2.90104 -2.43031
0.320566 0.260047 -0.160205
0.237146 0.325576 -0.16128
0 0 0
0 0 0
5.94295 1.89161 2.4786
0.893122 1.46602 -0.622628
13.9433 -0.600774 6.39781
7.74331 2.03435 2.762
0.0028895 -0.00127654 -0.00466385
0.103642 -0.0883167 0.0614059
0.160509 0.0068157 0.100196
0.0467295 0.00606474 0.0032062
3.21482 5.27087 -2.28195
-0.0429964 -0.0552134 -0.0164853
0 0 0
-0.0146941 -0.105085 0.0419605
1.25095 -3.83798 -1.8598
3.97335 1.7046 1.81699
15.8991 -0.405337 0.295508
5.59199 0.410396 2.53872
16.2381 -0.595233 1.15714
14.9762 -0.33726 -3.48889
1.76111 -0.109924 0.727044
12.7976 -0.439686 -6.06902
0 0 0
12.0365 -0.51434 8.63118
15.8655 -0.72325 3.35381
0 0 0
0.129709 0.029323 0.142552
2.19816 2.84971 0.0400096
7.60309 2.09882 2.84995
0 0 0
16.7769 -0.246298 -0.487742
0 0 0
6.85846 -0.607664 6.7491
0.118616 0.0260096 0.15887
7.61238 -1.43475 7.56632
5.75765 0.176702 4.90807
16.0491 -0.271078 -1.92672
1.37697 -3.68338 -1.30762
1.68299 -1.25319 -2.78275
15.0146 -0.687066 5.00947
5.45563 1.98261 2.29714
6.74008 1.15936 2.86465
4.1552 1.2534 2.87104
9.79814 -0.167298 10.1836
9.72136 -0.519654 -8.42277
1.39087 -2.02246 -2.60011
3.54491 1.79267 2.03324
2.27875 1.24409 0.691676
13.987 -0.37801 -4.59867
5.6851 8.13344 -4.74021
15.5741 -0.300592 -2.56126
13.5021 -0.584301 7.14472
3.55253 -1.27784 2.16085
19.9981 -0.000660257 -0.000102931
7.59307 1.6198 3.07127
7.16408 2.22372 2.78466
20 0 0
19.9541 -0.0253616 0.00375535
20 0 0
3.49374 2.16596 1.6625
16.5959 -0.484471 0.727951
1.02576 -3.0747 -2.33672
19.992 -0.0116991 0.000917121
11.0686 -0.497744 -7.40182
3.2067 3.94867 -0.802827
16.3681 -0.628063 2.08096
16.3072 -0.255699 -1.42278
15.7375 -0.682431 3.84462
4.75666 2.24593 2.07993
11.3802 -0.508784 9.27199
0 0 0
0.701941 0.569422 -0.350798
0.995108 -3.1999 -1.62925
0.517614 0.710627 -0.352022
14.7594 -0.33155 -3.59771
2.00815 -0.0797046 0.6316
4.87085 -0.108871 2.81372
0 0 0
0.342323 0.404581 -0.276826
0 0 0
2.95583 2.57101 0.322306
-0.0478727 -0.0614753 -0.018355
0.835348 0.824253 -0.591363
12.5114 -0.436157 -5.94634
-0.0163521 -0.116942 0.0466952
0 0 0
15.9003 -0.275848 -2.09165
0.548456 0.979902 -0.493802
0 0 0
0 0 0
7.87357 1.92449 3.13169
0 0 0
0 0 0
8.38238 0.349152 11.044
14.5429 -0.671595 5.68633
2.02914 3.03507 -1.38443
0.449969 -0.00606067 0.477632
0 0 0
6.23952 0.19655 6.4048
0 0 0
6.87458 0.854817 3.23523
0.0121458 -0.0144086 -0.0182532
0 0 0
0.000913268 -0.0026071 -0.00189634
0.00760311 -0.0217045 -0.0157874
0 0 0
0.00602837 -0.023789 -0.0141814
5.14625 1.18005 4.92646
0.338803 0.118235 0.372663
0 0 0
6.35604 2.44995 2.56747
4.72549 7.06343 -3.23932
3.59309 2.13504 2.96067
0 0 0
0.0994983 -0.0405893 -0.0840803
0 0 0
0 0 0
0.096569 -0.0389344 -0.0969625
2.41961 1.06274 0.81109
9.66383 -0.654145 10.5991
13.9515 -0.368856 -4.36714
15.3323 -0.298361 -2.79603
12.9403 -0.609116 7.63478
1.04088 -2.0284 -2.42514
2.6538 2.85716 1.74112
3.61527 4.00628 -0.823682
8.09512 1.48249 3.43643
1.76127 -1.89126 0.182289
10.1736 -0.496907 -7.60902
7.70701 2.2014 3.05196
3.71365 2.7702 1.87575
15.4723 -0.724357 4.36697
0.675572 -2.80997 -2.05229
-0.0164617 -0.117725 0.047008
0.077551 -0.0173618 0.0986305
0 0 0
0 0 0
-0.0321869 -0.100748 0.0040352
14.6198 -0.327469 -3.55648
0 0 0
11.0371 -0.630244 9.50374
3.21362 2.43289 0.195534
5.78458 10.9439 -5.48191
3.68166 -0.752904 2.28944
0.329551 -3.3301 -1.581
0 0 0
0.114944 0.0252043 0.153952
5.17392 2.7875 2.24023
12.2308 -0.446169 -5.95922
0 0 0
0 0 0
0.111256 0.0264324 0.162138
14.1873 -0.703446 6.22318
8.59657 1.89108 3.46113
8.43269 -0.52391 -8.64648
5.70137 0.409985 2.91517
4.26821 5.71792 -2.26141
16.9543 -0.210403 -0.138805
8.96194 -0.280434 10.7384
16.6753 -0.2208 -0.732763
17.4431 -0.529045 1.47768
0.796809 -2.30288 -0.968685
4.99038 1.62987 5.86355