# vtk DataFile Version 2.0
track0
ASCII
DATASET POLYDATA
POINTS 19360 float
-1.001 -0.05 0.316889
-1.0008 -0.0500006 0.316891
-1.00059 -0.0500012 0.316892
-1.00039 -0.0500018 0.316893
-1.00019 -0.0500024 0.316894
-0.999982 -0.050003 0.316895
-0.987481 -0.0500398 0.316959
-0.97498 -0.0500785 0.317025
-0.962479 -0.050118 0.317091
-0.949978 -0.0501585 0.317157
-0.937477 -0.0501999 0.317224
-0.924975 -0.0502408 0.317291
-0.912473 -0.0502838 0.317358
-0.89997 -0.0503286 0.317426
-0.887468 -0.0503752 0.317495
-0.874966 -0.0504237 0.317564
-0.862462 -0.0504722 0.317633
-0.849959 -0.0505221 0.317703
-0.837455 -0.0505747 0.317773
-0.824951 -0.05063 0.317843
-0.812448 -0.0506879 0.317914
-0.79995 -0.0507477 0.317985
-0.787453 -0.0508111 0.318057
-0.774955 -0.0508784 0.318128
-0.762458 -0.0509495 0.3182
-0.749961 -0.0510244 0.318271
-0.737547 -0.0510999 0.318343
-0.725134 -0.0511774 0.318414
-0.712721 -0.0512603 0.318484
-0.700308 -0.0513487 0.318555
-0.687895 -0.0514426 0.318625
-0.681934 -0.0514902 0.318658
-0.675973 -0.0515396 0.318692
-0.670012 -0.0515911 0.318725
-0.664051 -0.0516445 0.318758
-0.65803 -0.0517006 0.31879
-0.651824 -0.0517604 0.318824
-0.645619 -0.0518224 0.318858
-0.639413 -0.0518866 0.318891
-0.633207 -0.0519529 0.318924
-0.627001 -0.0520202 0.318957
-0.61425 -0.0521596 0.319024
-0.601499 -0.0523049 0.319091
-0.588748 -0.0524655 0.319156
-0.575997 -0.0526416 0.31922
-0.563245 -0.0528333 0.319283
-0.550725 -0.0530331 0.319344
-0.538206 -0.0532548 0.319405
-0.525687 -0.0535029 0.319463
-0.513168 -0.0537778 0.319519
-0.500645 -0.0540798 0.319572
-0.488224 -0.0543974 0.319625
-0.475804 -0.0547592 0.31968
-0.463386 -0.0551785 0.319731
-0.45097 -0.0556562 0.319779
-0.438538 -0.0561949 0.319825
-0.432347 -0.056496 0.31985
-0.426157 -0.0568102 0.319878
-0.419968 -0.0571536 0.319906
-0.413781 -0.0575272 0.319933
-0.407583 -0.0579324 0.319959
-0.401362 -0.0583734 0.319982
-0.395145 -0.0588606 0.320009
-0.388933 -0.059402 0.320036
-0.382726 -0.0599981 0.320061
-0.376477 -0.060654 0.320086
-0.371928 -0.0611717 0.320106
-0.367386 -0.0617381 0.320129
-0.36285 -0.0623572 0.320154
-0.358323 -0.063038 0.32018
-0.357226 -0.0632166 0.320187
-0.354814 -0.0636167 0.320201
-0.352404 -0.0640304 0.320214
-0.349996 -0.0644576 0.320228
-0.347591 -0.0648982 0.32024
-0.345163 -0.065357 0.320253
-0.338842 -0.0665874 0.320287
-0.332545 -0.0679309 0.320316
-0.326278 -0.0694113 0.320342
-0.320045 -0.0710247 0.320361
-0.313555 -0.0728353 0.320368
-0.310349 -0.0737793 0.320365
-0.307142 -0.0747221 0.320362
-0.303938 -0.0756744 0.320356
-0.30074 -0.0766458 0.320348
-0.297521 -0.0776428 0.320336
-0.296777 -0.0778822 0.320333
-0.296034 -0.0781224 0.320329
-0.29529 -0.0783622 0.320325
-0.294546 -0.0786012 0.32032
-0.293801 -0.0788398 0.320315
-0.291443 -0.0795926 0.320298
-0.289084 -0.0803435 0.320278
-0.286724 -0.0810924 0.320255
-0.284364 -0.0818394 0.32023
-0.28201 -0.0825818 0.320203
-0.278827 -0.0835775 0.320165
-0.275632 -0.0845318 0.320119
-0.272425 -0.0854466 0.320067
-0.269209 -0.0863267 0.320008
-0.266105 -0.0871462 0.319948
-0.262998 -0.087939 0.319883
-0.259881 -0.0886908 0.319812
-0.256753 -0.089395 0.319736
-0.253612 -0.0900417 0.319658
-0.250591 -0.0906088 0.319578
-0.247521 -0.0910821 0.319495
-0.244444 -0.0915064 0.319409
-0.24136 -0.0918727 0.31932
-0.238269 -0.0921818 0.31923
-0.235284 -0.0924251 0.319141
-0.232057 -0.092616 0.319044
-0.228828 -0.0927723 0.318947
-0.225597 -0.0928857 0.318848
-0.222365 -0.0929553 0.318748
-0.219138 -0.0929794 0.318647
-0.215946 -0.0929521 0.318546
-0.212753 -0.0929013 0.318445
-0.209561 -0.0928237 0.318343
-0.20637 -0.0927211 0.318241
-0.203165 -0.0925921 0.318137
-0.20011 -0.0924472 0.318036
-0.197056 -0.0922973 0.317936
-0.194002 -0.0921392 0.317834
-0.190948 -0.0919726 0.317732
-0.187891 -0.0917957 0.31763
-0.184891 -0.0916088 0.317528
-0.181892 -0.0914046 0.317427
-0.178894 -0.0911862 0.317325
-0.175897 -0.0909531 0.317223
-0.172893 -0.0907043 0.317121
-0.169845 -0.0904472 0.317016
-0.166798 -0.0901768 0.316912
-0.163752 -0.0899061 0.316807
-0.160705 -0.0896352 0.316701
-0.157656 -0.0893637 0.316593
-0.154535 -0.0890864 0.31648
-0.151416 -0.0887922 0.316368
-0.148297 -0.088502 0.316256
-0.145177 -0.0882169 0.316142
-0.142057 -0.087937 0.316028
-0.138599 -0.0876433 0.315908
-0.135138 -0.0873751 0.315792
-0.131676 -0.0871226 0.315673
-0.128213 -0.0868865 0.315551
-0.12477 -0.0866736 0.315432
-0.121528 -0.0864814 0.315327
-0.118284 -0.0863399 0.315212
-0.11504 -0.086219 0.315086
-0.111795 -0.0861171 0.314951
-0.108572 -0.0860351 0.314806
-0.105316 -0.0859683 0.314644
-0.102062 -0.08593 0.314467
-0.0988078 -0.085905 0.314272
-0.0955548 -0.0858932 0.314061
-0.0922905 -0.0858958 0.313829
-0.0890752 -0.0859061 0.31357
-0.0858616 -0.085928 0.313291
-0.0826498 -0.0859547 0.312993
-0.0794397 -0.0859884 0.312678
-0.0777006 -0.0860105 0.312497
-0.077405 -0.0860146 0.312466
-0.0771095 -0.0860187 0.312434
-0.076814 -0.086023 0.312402
-0.0765185 -0.0860273 0.31237
-0.076223 -0.0860318 0.312338
-0.0734269 -0.0860741 0.312031
-0.0706325 -0.0861259 0.311711
-0.0678399 -0.0861881 0.311378
-0.0650492 -0.0862608 0.31103
-0.0622475 -0.0863423 0.310665
-0.0593122 -0.0864464 0.310259
-0.0563792 -0.0865661 0.30984
-0.0534489 -0.0867164 0.309412
-0.0505221 -0.0868964 0.308972
-0.0475491 -0.0871109 0.308512
-0.0443052 -0.0874142 0.307985
-0.0410689 -0.0877559 0.307436
-0.0378449 -0.08817 0.306865
-0.0346391 -0.088681 0.306271
-0.031277 -0.0893463 0.305543
-0.0289133 -0.0899318 0.304914
-0.0265875 -0.0905825 0.304212
-0.024264 -0.09125 0.303519
-0.021923 -0.091914 0.302883
-0.0207702 -0.0922349 0.30262
-0.018911 -0.0927463 0.302257
-0.0170634 -0.0933308 0.301948
-0.0152277 -0.0939495 0.301634
-0.0134184 -0.0946373 0.301312
-0.0113713 -0.0956485 0.300908
-1.001 -0.05 0.369521
-1.0008 -0.0500006 0.369522
-1.00059 -0.0500012 0.369524
-1.00039 -0.0500018 0.369525
-1.00019 -0.0500023 0.369526
-0.999983 -0.0500029 0.369527
-0.987482 -0.050039 0.369604
-0.974981 -0.050078 0.36968
-0.96248 -0.0501179 0.369758
-0.949978 -0.0501589 0.369836
-0.937477 -0.0502008 0.369915
-0.924975 -0.0502409 0.369995
-0.912473 -0.0502835 0.370076
-0.899971 -0.0503278 0.370158
-0.887469 -0.0503739 0.37024
-0.874967 -0.0504218 0.370324
-0.862469 -0.0504695 0.370408
-0.849972 -0.0505197 0.370493
-0.837474 -0.0505724 0.370579
-0.824977 -0.0506278 0.370666
-0.812479 -0.0506858 0.370754
-0.800059 -0.050744 0.370842
-0.787639 -0.0508053 0.370931
-0.775218 -0.0508703 0.37102
-0.762798 -0.050939 0.37111
-0.750377 -0.0510113 0.371201
-0.738235 -0.0510835 0.371291
-0.726092 -0.0511596 0.371381
-0.713949 -0.0512409 0.371471
-0.701806 -0.0513273 0.371562
-0.689663 -0.051419 0.371655
-0.676973 -0.0515173 0.371751
-0.664282 -0.0516213 0.371848
-0.651591 -0.0517332 0.371947
-0.638901 -0.0518531 0.372047
-0.62621 -0.051981 0.372148
-0.613705 -0.0521138 0.372249
-0.601201 -0.0522587 0.372351
-0.588696 -0.0524172 0.372454
-0.576192 -0.0525894 0.37256
-0.563687 -0.0527755 0.372666
-0.551184 -0.0529678 0.372775
-0.538681 -0.0531719 0.372888
-0.526178 -0.0534005 0.373005
-0.513676 -0.053654 0.373126
-0.50117 -0.0539327 0.373251
-0.488719 -0.0542341 0.373378
-0.476268 -0.0545839 0.373514
-0.46382 -0.0549855 0.37366
-0.451373 -0.0554398 0.373814
-0.438911 -0.0559484 0.373978
-0.43269 -0.0562268 0.374068
-0.42647 -0.056521 0.374163
-0.420252 -0.0568406 0.374263
-0.414035 -0.0571862 0.374367
-0.407807 -0.0575589 0.374476
-0.40156 -0.0579603 0.37459
-0.395316 -0.0584058 0.374711
-0.389075 -0.0588966 0.374839
-0.382838 -0.0594332 0.374974
-0.376566 -0.0600198 0.375117
-0.375484 -0.0601286 0.375144
-0.374402 -0.0602397 0.375171
-0.373321 -0.0603529 0.375199
-0.37224 -0.0604689 0.375227
-0.371389 -0.0605632 0.37525
-0.366562 -0.0611119 0.375381
-0.36174 -0.0617057 0.375516
-0.356923 -0.0623442 0.375655
-0.352114 -0.0630273 0.375798
-0.350368 -0.0632923 0.375852
-0.349333 -0.0634536 0.375884
-0.348297 -0.0636169 0.375916
-0.347262 -0.0637823 0.375948
-0.346228 -0.0639499 0.375981
-0.34519 -0.0641201 0.376014
-0.338825 -0.0651763 0.376218
-0.332482 -0.0663606 0.376423
-0.326166 -0.0676779 0.376631
-0.319878 -0.0691251 0.376841
-0.313297 -0.0707808 0.377063
-0.310108 -0.0716259 0.377158
-0.306922 -0.0724825 0.377245
-0.303739 -0.073354 0.377324
-0.30056 -0.0742399 0.377397
-0.29735 -0.0751613 0.377464
-0.294639 -0.0759632 0.377519
-0.29193 -0.0767762 0.377563
-0.289223 -0.0775942 0.377598
-0.286518 -0.0784191 0.377624
-0.28408 -0.079169 0.377639
-0.283572 -0.0793264 0.37764
-0.283065 -0.0794839 0.377642
-0.282557 -0.0796415 0.377643
-0.28205 -0.0797993 0.377644
-0.281542 -0.0799573 0.377645
-0.278202 -0.0809971 0.377648
-0.274859 -0.0820224 0.377634
-0.271511 -0.0830344 0.377603
-0.26816 -0.0840342 0.377556
-0.26484 -0.0850041 0.377495
-0.261668 -0.0859236 0.37742
-0.258478 -0.0867777 0.377328
-0.255276 -0.087585 0.377217
-0.252064 -0.0883466 0.377089
-0.248946 -0.0890217 0.376943
-0.245854 -0.0896662 0.376782
-0.242752 -0.0902525 0.376603
-0.239641 -0.0907804 0.376408
-0.236522 -0.0912627 0.3762
-0.233449 -0.0916919 0.375983
-0.231008 -0.0919742 0.375798
-0.228567 -0.0922394 0.375608
-0.226122 -0.0924709 0.375415
-0.223674 -0.0926678 0.375217
-0.221541 -0.0928088 0.375042
-0.221063 -0.0928345 0.375002
-0.220584 -0.0928588 0.374962
-0.220105 -0.0928818 0.374922
-0.219626 -0.0929035 0.374881
-0.219148 -0.0929239 0.374841
-0.216025 -0.0930491 0.374576
-0.212901 -0.0931384 0.374312
-0.209775 -0.0931921 0.37405
-0.206649 -0.093209 0.37379
-0.203545 -0.0931879 0.373534
-0.200423 -0.0931362 0.373282
-0.197302 -0.0930572 0.373031
-0.194181 -0.0929556 0.372781
-0.191061 -0.0928305 0.372534
-0.187941 -0.0926814 0.37229
-0.184862 -0.0925254 0.372052
-0.181784 -0.0923443 0.371812
-0.178708 -0.0921429 0.371573
-0.175633 -0.0919207 0.371334
-0.172547 -0.091676 0.371094
-0.169467 -0.0914312 0.370866
-0.166389 -0.0911672 0.370628
-0.163311 -0.0908969 0.370392
-0.160234 -0.0906201 0.370156
-0.157146 -0.0903401 0.369921
-0.154056 -0.090063 0.369694
-0.150969 -0.0897579 0.369461
[...]
POINT_DATA 19360
 FIELD attributes 1
U 3 19360 float
19.1799 	-0.0563615 	0.0991138 19.1796 	-0.056387 	0.0991339 19.1793 	-0.0564126 	0.099154 19.179 	-0.0564381 	0.0991741 19.1787 	-0.0564636 	0.0991941 19.1784 	-0.0564891 	0.0992142 19.1641 	-0.0592735 	0.100393 19.1507 	-0.0606145 	0.100971 19.1372 	-0.0619564 	0.101549 19.1238 	-0.0632992 	0.102127 19.1082 	-0.0624912 	0.102236 19.0877 	-0.0656817 	0.102995 19.0676 	-0.0683567 	0.103651 19.0476 	-0.0710337 	0.104306 19.0276 	-0.0737127 	0.104962 19.0074 	-0.0737144 	0.1054 18.9831 	-0.0758286 	0.105891 18.9598 	-0.0797432 	0.106352 18.9365 	-0.083662 	0.106812 18.9132 	-0.087585 	0.107272 18.8902 	-0.0904403 	0.107593 18.862 	-0.0957356 	0.107558 18.8342 	-0.101348 	0.107613 18.8065 	-0.106966 	0.107668 18.7787 	-0.112591 	0.107722 18.7502 	-0.114049 	0.10771 18.7144 	-0.116854 	0.107103 18.6804 	-0.124802 	0.106433 18.6464 	-0.132765 	0.105762 18.6124 	-0.140741 	0.105091 18.5785 	-0.148311 	0.104352 18.5572 	-0.153989 	0.103495 18.5361 	-0.160018 	0.102718 18.515 	-0.166051 	0.10194 18.4939 	-0.172089 	0.101162 18.4726 	-0.178194 	0.100376 18.4506 	-0.184342 	0.0995966 18.4285 	-0.190496 	0.0988169 18.4065 	-0.196655 	0.0980369 18.3832 	-0.19932 	0.0973272 18.3595 	-0.200712 	0.0968493 18.2953 	-0.208475 	0.0952974 18.2378 	-0.229733 	0.093306 18.1803 	-0.251061 	0.0913121 18.1228 	-0.272462 	0.0893155 18.0642 	-0.288273 	0.088045 17.9772 	-0.318363 	0.0873652 17.8961 	-0.354684 	0.0834741 17.815 	-0.391131 	0.0795767 17.734 	-0.427705 	0.0756728 17.6505 	-0.451269 	0.0753821 17.5107 	-0.510157 	0.0766569 17.3911 	-0.587183 	0.0719709 17.2718 	-0.664616 	0.0672684 17.1528 	-0.743231 	0.0626551 16.9838 	-0.825875 	0.0683058 16.8946 	-0.857681 	0.0774988 16.8191 	-0.933218 	0.075834 16.742 	-1.01105 	0.0729438 16.6653 	-1.08933 	0.0699877 16.5847 	-1.17574 	0.0601596 16.4577 	-1.28992 	0.0736343 16.3719 	-1.42655 	0.0701581 16.2874 	-1.56407 	0.0664555 16.2046 	-1.70111 	0.064711 16.1165 	-1.83429 	0.0705822 16.0289 	-1.99838 	0.0800338 15.9682 	-2.17958 	0.0873467 15.8817 	-2.38846 	0.0931824 15.827 	-2.57802 	0.0925651 15.8159 	-2.62312 	0.0920267 15.7976 	-2.71142 	0.0893168 15.7801 	-2.79959 	0.0865212 15.7633 	-2.88763 	0.0836399 15.7472 	-2.97552 	0.0806731 15.7183 	-3.06007 	0.0856136 15.7751 	-3.36549 	0.0726448 15.7297 	-3.71596 	0.0653275 15.8714 	-4.10777 	0.0466728 16.1928 	-4.51765 	0.0177722 16.5046 	-4.8592 	-0.0129406 16.737 	-4.92066 	-0.0180375 16.9527 	-5.03909 	-0.0284713 17.1451 	-5.20734 	-0.0456036 17.3322 	-5.36786 	-0.0639844 17.5167 	-5.63908 	-0.0777889 17.6085 	-5.68982 	-0.0878201 17.6947 	-5.70629 	-0.0984045 17.7794 	-5.71382 	-0.109131 17.8641 	-5.72146 	-0.119854 17.9489 	-5.72924 	-0.130587 18.1788 	-5.78653 	-0.156516 18.411 	-5.84414 	-0.179799 18.6485 	-5.90217 	-0.196642 18.8832 	-5.95424 	-0.213487 19.1038 	-5.97668 	-0.230274 19.513 	-5.82773 	-0.278691 19.927 	-5.68479 	-0.325992 20.3298 	-5.56267 	-0.369387 20.6161 	-5.44262 	-0.401735 20.8915 	-5.33098 	-0.432743 21.2904 	-5.13504 	-0.486965 21.614 	-4.86536 	-0.524537 21.8363 	-4.49736 	-0.54604 22.0674 	-4.14181 	-0.579726 22.3523 	-3.44634 	-0.608323 22.5457 	-3.10882 	-0.629601 22.6183 	-2.68622 	-0.649072 22.6967 	-2.27042 	-0.663176 22.784 	-1.85674 	-0.676414 22.85 	-1.35126 	-0.687202 22.7297 	-1.10065 	-0.686537 22.6018 	-0.793181 	-0.690977 22.4802 	-0.483829 	-0.695428 22.3797 	-0.167073 	-0.699023 22.2333 	0.189761 	-0.704199 21.9546 	0.349333 	-0.694753 21.729 	0.528298 	-0.693035 21.5234 	0.692225 	-0.692355 21.3186 	0.857635 	-0.691505 21.1518 	1.00356 	-0.698272 20.8728 	1.02439 	-0.686115 20.6844 	1.0709 	-0.685823 20.4961 	1.11772 	-0.68545 20.3063 	1.17522 	-0.681446 20.2071 	1.25909 	-0.685883 19.959 	1.35898 	-0.672795 19.8194 	1.44373 	-0.669288 19.681 	1.53072 	-0.66941 19.5427 	1.61845 	-0.669431 19.5327 	1.64769 	-0.671294 19.2839 	1.71139 	-0.655618 19.1609 	1.70232 	-0.660023 19.0379 	1.69325 	-0.664412 18.9144 	1.68405 	-0.666645 18.8673 	1.67637 	-0.68488 18.5988 	1.75437 	-0.666289 18.4582 	1.71715 	-0.667715 18.3174 	1.6741 	-0.666885 18.1768 	1.63055 	-0.666066 18.0406 	1.53207 	-0.624882 17.8107 	1.3806 	-0.598267 17.6462 	1.28695 	-0.605805 17.482 	1.19219 	-0.61371 17.294 	1.06922 	-0.599944 17.0402 	1.01031 	-0.550669 16.9604 	0.739664 	-0.600746 16.8345 	0.627005 	-0.653078 16.7005 	0.524542 	-0.698447 16.5674 	0.421599 	-0.744702 16.4504 	0.337539 	-0.814733 16.3136 	0.191927 	-0.891923 16.2053 	0.124783 	-0.967334 16.0981 	0.0581652 	-1.04328 16.0089 	-0.0125784 	-1.14102 15.9317 	-0.0513449 	-1.2834 15.8423 	-0.107849 	-1.37337 15.7207 	-0.130515 	-1.45817 15.5969 	-0.16383 	-1.53236 15.4741 	-0.196356 	-1.60697 15.4079 	-0.213549 	-1.64764 15.3962 	-0.217609 	-1.65497 15.3844 	-0.221671 	-1.66231 15.3726 	-0.225735 	-1.66966 15.3609 	-0.229801 	-1.67702 15.3495 	-0.232502 	-1.68196 15.1553 	-0.281132 	-1.73511 14.9639 	-0.333191 	-1.78693 14.7726 	-0.384876 	-1.83925 14.5434 	-0.423107 	-1.89817 14.3188 	-0.507613 	-1.98167 13.9204 	-0.568347 	-1.98793 13.5885 	-0.696637 	-1.98245 13.3105 	-0.818571 	-2.00048 13.0343 	-0.940746 	-2.01956 12.8083 	-1.19721 	-2.0778 12.386 	-1.30783 	-2.10136 11.9516 	-1.53511 	-2.11887 11.5136 	-1.83533 	-2.13381 10.9954 	-2.17565 	-2.37894 10.4118 	-2.5792 	-2.77034 9.71777 	-2.71907 	-2.93288 8.43412 	-2.42298 	-2.51759 6.92638 	-1.96431 	-1.88073 5.41445 	-1.50729 	-1.23528 4.67542 	-1.28614 	-0.91415 3.82114 	-1.20884 	-0.638702 2.95832 	-0.996987 	-0.504954 2.1182 	-0.805218 	-0.37721 1.32539 	-0.65472 	-0.261882 0 	0 	0
19.1891 	-0.0552007 	0.117194 19.1888 	-0.0552258 	0.117213 19.1885 	-0.0552509 	0.117233 19.1882 	-0.055276 	0.117253 19.1879 	-0.0553011 	0.117272 19.1876 	-0.0553262 	0.117292 19.1744 	-0.0597883 	0.117455 19.1596 	-0.0612581 	0.118646 19.1448 	-0.0627287 	0.119838 19.1303 	-0.064179 	0.120874 19.1123 	-0.0612486 	0.122685 19.0919 	-0.0650129 	0.123324 19.0718 	-0.067653 	0.124515 19.0517 	-0.0702819 	0.125856 19.0316 	-0.0729126 	0.127197 19.0112 	-0.0724812 	0.128657 18.9872 	-0.0762313 	0.129196 18.9638 	-0.0800777 	0.130425 18.9404 	-0.0839275 	0.131655 18.917 	-0.0877897 	0.132825 18.8935 	-0.0884634 	0.133996 18.8648 	-0.0932039 	0.134512 18.8369 	-0.0985899 	0.135522 18.8091 	-0.103975 	0.136569 18.7813 	-0.109367 	0.137617 18.7536 	-0.111548 	0.138428 18.7184 	-0.117274 	0.138568 18.6843 	-0.125029 	0.139398 18.6503 	-0.132802 	0.140231 18.6163 	-0.140586 	0.141065 18.582 	-0.143876 	0.141332 18.5358 	-0.151916 	0.141923 18.4921 	-0.163083 	0.143535 18.4484 	-0.174275 	0.145149 18.4047 	-0.185492 	0.146762 18.3604 	-0.195008 	0.148089 18.3013 	-0.212059 	0.149378 18.2442 	-0.231252 	0.151244 18.1871 	-0.25049 	0.153111 18.1299 	-0.269773 	0.154978 18.0685 	-0.277829 	0.157009 17.9779 	-0.293484 	0.162799 17.8996 	-0.327319 	0.167469 17.8213 	-0.361315 	0.172136 17.7431 	-0.395474 	0.176799 17.6645 	-0.427584 	0.181123 17.5451 	-0.492945 	0.191779 17.4325 	-0.562375 	0.203269 17.3202 	-0.632165 	0.214758 17.208 	-0.702319 	0.226246 17.0392 	-0.762369 	0.24626 16.9505 	-0.801893 	0.260468 16.8776 	-0.86734 	0.271247 16.8058 	-0.934232 	0.281738 16.7344 	-1.00144 	0.292178 16.6638 	-1.07073 	0.303341 16.573 	-1.18254 	0.320655 16.4904 	-1.29687 	0.338165 16.4085 	-1.41171 	0.355575 16.3274 	-1.52707 	0.372882 16.2142 	-1.63034 	0.397818 16.1779 	-1.66058 	0.40747 16.1404 	-1.69007 	0.417602 16.1099 	-1.72887 	0.425988 16.0913 	-1.78383 	0.431343 16.0769 	-1.82719 	0.435532 16.0341 	-1.97464 	0.449072 15.9943 	-2.12046 	0.461899 15.9571 	-2.26621 	0.474161 15.9143 	-2.41655 	0.48729 15.8944 	-2.47414 	0.492765 15.8849 	-2.50593 	0.495526 15.8755 	-2.53771 	0.498265 15.8662 	-2.56949 	0.500981 15.8569 	-2.60126 	0.503674 15.8456 	-2.62913 	0.507627 15.8556 	-2.96078 	0.512696 15.8545 	-3.30635 	0.521841 15.8585 	-3.65019 	0.5297 15.8677 	-3.9922 	0.536291 16.1267 	-4.27381 	0.479728 16.275 	-4.37504 	0.442162 16.414 	-4.49444 	0.410553 16.5539 	-4.61359 	0.378638 16.7008 	-4.79366 	0.348622 16.8367 	-4.97916 	0.338038 17.042 	-5.11579 	0.278191 17.272 	-5.21903 	0.22296 17.497 	-5.3355 	0.166951 17.7225 	-5.4517 	0.110731 17.9264 	-5.55623 	0.0598474 17.9641 	-5.57311 	0.0504465 18.0018 	-5.58998 	0.0410417 18.0395 	-5.60684 	0.0316332 18.0764 	-5.62348 	0.0228044 18.1098 	-5.63916 	0.0165886 18.4324 	-5.65192 	-0.0755854 18.7797 	-5.67726 	-0.172081 19.1431 	-5.71112 	-0.271392 19.439 	-5.68005 	-0.358338 19.7269 	-5.71754 	-0.462184 20.065 	-5.37237 	-0.583377 20.3399 	-5.12855 	-0.702374 20.618 	-4.88822 	-0.822173 21.042 	-4.55615 	-0.981081 21.3086 	-4.44193 	-1.10959 21.593 	-4.08097 	-1.24923 21.7584 	-3.6916 	-1.36259 21.8851 	-3.38505 	-1.45904 22.0184 	-3.0744 	-1.55758 22.2198 	-2.57071 	-1.68551 22.2169 	-2.41261 	-1.72573 22.1929 	-2.10121 	-1.75573 22.1723 	-1.78396 	-1.78664 22.156 	-1.46505 	-1.81879 22.1454 	-1.18603 	-1.84785 22.1466 	-1.12543 	-1.85709 22.148 	-1.06477 	-1.86638 22.1496 	-1.00406 	-1.87572 22.1513 	-0.943285 	-1.88512 22.1294 	-0.887509 	-1.87812 21.9637 	-0.627473 	-1.85422 21.8058 	-0.374573 	-1.8255 21.6511 	-0.116886 	-1.79879 21.4995 	0.145725 	-1.77415 21.3327 	0.353084 	-1.7222 21.1318 	0.534832 	-1.70411 20.9563 	0.682695 	-1.67393 20.7815 	0.832747 	-1.64449 20.6071 	0.985053 	-1.61583 20.4292 	1.03504 	-1.57841 20.2877 	1.19417 	-1.58064 20.1495 	1.31876 	-1.5687 20.0123 	1.44642 	-1.55562 19.8755 	1.5757 	-1.54299 19.7562 	1.57005 	-1.45964 19.6268 	1.68341 	-1.51743 19.4911 	1.71208 	-1.49976 19.3556 	1.74111 	-1.48224 19.2221 	1.74308 	-1.46265 19.0615 	1.70937 	-1.40313 18.9373 	1.87103 	-1.42876 18.8001 	1.88868 	-1.4134 18.655 	1.94897 	-1.39981 18.5078 	2.00904 	-1.3825 18.3246 	1.9533 	-1.27261 18.1366 	2.07308 	-1.35598 17.9592 	2.06587 	-1.34454 17.7783 	2.04592 	-1.32645 17.5377 	2.03073 	-1.2976 17.1136 	2.02243 	-1.21241 17.0901 	1.80185 	-1.26456 16.9411 	1.64871 	-1.26947 16.7493 	1.53259 	-1.24785 16.4831 	1.44011 	-1.16577 16.0491 	1.35923 	-0.988301 15.9686 	0.912244 	-1.05391 15.835 	0.603925 	-1.06775 15.6647 	0.434618 	-1.05636 15.4449 	0.315034 	-1.03199 15.1481 	0.264748 	-0.979508 15.2474 	0.0189649 	-1.03312 15.2135 	-0.123641 	-1.06199 15.1133 	-0.214787 	-1.0785 14.9686 	-0.282387 	-1.0628 14.7682 	-0.255457 	-1.00445 14.799 	-0.360933 	-1.10473 14.6923 	-0.43931 	-1.14142 14.5651 	-0.513666 	-1.16296 14.4243 	-0.583007 	-1.17911 14.1776 	-0.61149 	-1.15512 14.0885 	-0.60899 	-1.20525 13.9088 	-0.622619 	-1.29623 13.7143 	-0.639198 	-1.39446 13.498 	-0.63687 	-1.49469 13.2196 	-0.528325 	-1.61621 12.7529 	-0.376045 	-1.8904 10.8972 	-0.439321 	-1.56408 9.20986 	-0.439965 	-1.26001 7.66214 	-0.409187 	-1.00193 6.41508 	-0.381375 	-0.797218 6.39418 	-0.379801 	-0.794848 6.37328 	-0.378227 	-0.792477 6.35238 	-0.376653 	-0.790107 6.33108 	-0.375815 	-0.787271 6.30902 	-0.376325 	-0.783572 5.50741 	-0.360728 	-0.687577 4.70929 	-0.345705 	-0.592363 3.91597 	-0.331466 	-0.498214 3.12964 	-0.318353 	-0.405589 2.57717 	-0.493708 	-0.334959 2.62111 	-0.507013 	-0.395857 2.66933 	-0.520639 	-0.457252 2.72159 	-0.534559 	-0.519093 2.58991 	-0.493601 	-0.509194 1.58237 	-0.195308 	-0.159102 2.21197 	-0.149994 	-0.294731 3.0156 	-0.132599 	-0.444072 3.96006 	-0.173275 	-0.556124 3.13026 	-0.126988 	-0.123334 2.27999 	-0.08056 	0.288426 3.52139 	-0.353313 	0.650877 3.9499 	-0.29238 	1.11506 3.73579 	0.0364642 	1.6723 3.41869 	0.325657 	2.10717 5.29252 	0.0118929 	3.20733 7.19821 	-0.533085 	4.32315 9.11286 	-1.16832 	5.44229 7.73663 	-0.535908 	4.67031 6.15308 	0.200334 	3.77964 5.9808 	0.0731455 	5.11437 6.2642 	-0.337714 	6.38617 4.95381 	-0.0859602 	6.15569 3.16754 	0.410706 	4.95933 2.675 	0.56494 	4.4813 4.05528 	-0.421857 	6.49463 4.81083 	-0.934705 	8.27356 5.00678 	-1.07278 	9.0415 5.04586 	-1.1788 	9.05207 5.08014 	-1.28483 	9.06857 5.07574 	-1.32823 	9.10987 5.07133 	-1.37164 	9.15109 5.0669 	-1.41506 	9.19224 5.01157 	-1.39048 	8.98021 4.94919 	-1.3568 	8.73432 4.91344 	-1.81699 	9.81989 4.74987 	-2.1551 	10.2786 4.41413 	-2.33345 	11.0675 3.89536 	-1.91855 	9.49583 3.15691 	-0.818743 	5.1769 2.77035 	-1.53831 	6.83263 1.59529 	-1.166 	4.49827 2.59206 	-1.68823 	7.46033 3.40503 	-2.03575 	9.75538 3.02481 	-1.3302 	7.94072 3.07643 	-1.55995 	9.26875 3.12236 	-1.5018 	9.51639 3.16855 	-1.36878 	9.4845 3.21617 	-1.23486 	9.45037 3.2812 	-1.0562 	9.40213 3.13044 	-1.06921 	9.508 2.98267 	-1.07697 	9.6107 2.70368 	-0.862898 	9.06766 2.46691 	-0.608285 	8.40378 2.36336 	-0.345471 	8.04834 2.5612 	-0.443856 	8.60399 2.84993 	-0.438474 	9.36196 2.57757 	-0.340609 	8.29147 2.30721 	-0.244355 	7.22807 2.40498 	0.172605 	6.59592 2.30582 	-0.10281 	7.31184 2.44094 	-0.0700475 	7.57934 2.59606 	-0.0414792 	7.9056 2.77287 	0.0442949 	7.98747 3.03882 	0.396999 	6.89736 3.0421 	0.324651 	7.24352 3.07008 	0.31488 	7.30996 3.11197 	0.338717 	7.22799 3.15469 	0.363172 	7.14506 3.20179 	0.390289 	7.05435 3.14542 	0.289734 	7.05324 3.08678 	0.187885 	7.05815 2.80055 	0.120236 	6.11062 3.06684 	0.276957 	6.4786 3.39296 	0.661236 	5.77002 3.14196 	0.525034 	5.96203 3.07695 	0.720861 	5.69218 3.02163 	0.909415 	5.4153 2.99547 	1.18495 	4.76991 3.02792 	1.69709 	3.84934 3.03495 	1.73872 	4.0236 3.04158 	1.77836 	4.20018 2.93159 	1.86073 	4.20532 2.79351 	1.95307 	4.1634 2.63047 	2.06254 	4.10931 2.51133 	2.38613 	4.22807 2.48903 	2.69258 	4.31314 2.46838 	2.99174 	4.38042 2.13551 	2.52069 	3.60963 1.43773 	1.21277 	1.89779 1.59542 	1.53062 	2.45717 1.83182 	1.8527 	3.59105 1.54459 	1.51681 	2.66127 1.03094 	1.0942 	1.7565 0.36022 	0.546894 	0.61694 0.360718 	0.548143 	0.617586 0.361215 	0.549391 	0.618229 0.359902 	0.54953 	0.61598 0.351923 	0.54558 	0.603087 0.344029 	0.541682 	0.590315 0.168525 	0.606552 	0.390788 0.0389277 	0.754607 	0.234898 -0.032233 	0.841273 	0.132908 -0.0728055 	0.744322 	0.057136 0 	0 	0
19.1932 	-0.0540696 	0.136002 19.1929 	-0.0540931 	0.136045 19.1926 	-0.0541167 	0.136089 19.1923 	-0.0541402 	0.136133 19.192 	-0.0541637 	0.136177 19.1917 	-0.0541872 	0.13622 19.1783 	-0.0586715 	0.138125 19.1635 	-0.060143 	0.139321 19.1499 	-0.061461 	0.140909 19.1365 	-0.0627738 	0.142512 19.1187 	-0.0601605 	0.143687 19.0978 	-0.0636061 	0.14566 19.0776 	-0.0661378 	0.147738 19.0575 	-0.0686712 	0.149817 19.0374 	-0.0712909 	0.151217 19.0174 	-0.070604 	0.152696 18.993 	-0.0744578 	0.154675 18.9697 	-0.0782567 	0.156022 18.9464 	-0.0818781 	0.158117 18.9232 	-0.0855026 	0.160212 18.9002 	-0.0863751 	0.161751 18.8716 	-0.0905304 	0.163504 18.844 	-0.0956269 	0.165536 18.8163 	-0.100729 	0.167568 18.7889 	-0.10596 	0.168885 18.7613 	-0.107489 	0.170235 18.726 	-0.11355 	0.172149 18.6916 	-0.121139 	0.173935 18.6582 	-0.128316 	0.176841 18.6248 	-0.135503 	0.179747 18.5903 	-0.139372 	0.182113 18.5452 	-0.14682 	0.184589 18.5025 	-0.157717 	0.187803 18.4598 	-0.168635 	0.19102 18.417 	-0.179621 	0.194111 18.373 	-0.185245 	0.196575 18.3127 	-0.198624 	0.200987 18.2585 	-0.215616 	0.206186 18.2044 	-0.232652 	0.211385 18.1503 	-0.249734 	0.216585 18.0955 	-0.261867 	0.221051 18.0121 	-0.282487 	0.230731 17.9408 	-0.310952 	0.240787 17.8695 	-0.339519 	0.250847 17.7983 	-0.368189 	0.260911 17.7185 	-0.386016 	0.267907 17.5926 	-0.436434 	0.291658 17.4938 	-0.49105 	0.311993 17.3957 	-0.54546 	0.332317 17.2978 	-0.600228 	0.352631 17.1494 	-0.6624 	0.384163 17.0836 	-0.689391 	0.402959 17.0199 	-0.736031 	0.420787 16.9516 	-0.783738 	0.441297 16.8837 	-0.832019 	0.461734 16.8277 	-0.89458 	0.480874 16.7135 	-0.962547 	0.510425 16.6516 	-1.04682 	0.536627 16.5903 	-1.13146 	0.562738 16.5246 	-1.22051 	0.588193 16.4372 	-1.30473 	0.621998 16.3391 	-1.44586 	0.657784 16.2776 	-1.58847 	0.687401 16.2211 	-1.7225 	0.718512 16.166 	-1.85746 	0.749212 16.0879 	-2.0163 	0.785826 16.0749 	-2.08533 	0.803532 16.0662 	-2.1626 	0.814344 16.058 	-2.23993 	0.82497 16.0503 	-2.31732 	0.835408 16.0454 	-2.36989 	0.842366 16.028 	-2.51555 	0.865281 16.0121 	-2.66108 	0.887702 15.9979 	-2.80645 	0.90963 15.9753 	-2.95602 	0.929027 15.9205 	-3.16577 	0.96167 16.1171 	-3.38809 	0.908375 16.0421 	-3.71507 	0.966991 16.2069 	-4.07906 	0.916776 16.4945 	-4.3798 	0.798447 16.8495 	-4.62441 	0.63901 17.0243 	-4.73976 	0.543465 17.1904 	-4.82854 	0.463625 17.3564 	-4.91526 	0.384811 17.5213 	-4.99719 	0.308711 17.7102 	-5.10436 	0.226127 17.7349 	-5.1043 	0.214578 17.7572 	-5.1037 	0.203844 17.778 	-5.10274 	0.193663 17.7988 	-5.10179 	0.183481 17.8198 	-5.10084 	0.173196 18.0489 	-5.15664 	0.0564241 18.2575 	-5.21932 	-0.0526073 18.4708 	-5.25839 	-0.167365 18.6856 	-5.29454 	-0.283274 18.9106 	-5.27638 	-0.412133 19.2073 	-5.15911 	-0.606447 19.4922 	-5.08661 	-0.804483 19.7314 	-4.98089 	-0.976954 19.9294 	-4.84563 	-1.12633 20.107 	-4.68608 	-1.27082 20.362 	-4.45979 	-1.51174 20.5236 	-4.24414 	-1.66991 20.6882 	-4.0317 	-1.8296 20.8235 	-3.82228 	-1.96305 21.0141 	-3.33864 	-2.13171 21.0151 	-3.16987 	-2.2419 21.0413 	-2.86711 	-2.31582 21.091 	-2.58768 	-2.39504 21.1457 	-2.31209 	-2.47773 21.203 	-2.00542 	-2.56106 21.1979 	-1.88542 	-2.57575 21.1927 	-1.78469 	-2.5815 21.188 	-1.684 	-2.58763 21.1837 	-1.58335 	-2.59414 21.1756 	-1.37201 	-2.6086 21.1711 	-1.17996 	-2.62798 21.1217 	-0.997791 	-2.63229 21.0684 	-0.81617 	-2.63516 21.0163 	-0.633953 	-2.63829 20.9685 	-0.455833 	-2.63969 20.9483 	-0.408284 	-2.6331 20.9278 	-0.356573 	-2.62556 20.9074 	-0.304691 	-2.61805 20.8871 	-0.252637 	-2.61057 20.8794 	-0.233051 	-2.60778 20.7848 	0.0115543 	-2.5717 20.6919 	0.258948 	-2.53619 20.601 	0.509231 	-2.50151 20.519 	0.764819 	-2.47642 20.4387 	0.966773 	-2.47906 20.2641 	1.16321 	-2.4015 20.12 	1.27148 	-2.36548 19.985 	1.35539 	-2.32643 19.8507 	1.43993 	-2.28726 19.6345 	1.42214 	-2.28743 19.5292 	1.66242 	-2.23912 19.3952 	1.7327 	-2.236 19.2613 	1.80299 	-2.23304 19.1275 	1.8733 	-2.23025 18.9722 	1.91506 	-2.23817 18.9331 	1.93857 	-2.21801 18.8846 	1.95387 	-2.21218 18.8361 	1.96918 	-2.20635 18.7887 	1.97884 	-2.2005 18.7422 	1.97765 	-2.19445 18.6402 	1.99912 	-2.18178 18.5383 	2.02066 	-2.16913 18.4364 	2.0423 	-2.15652 18.3345 	2.06401 	-2.14393 18.194 	1.96248 	-2.08566 18.0727 	2.16809 	-2.10586 17.9259 	2.23975 	-2.08385 17.7792 	2.31167 	-2.06196 17.6263 	2.38942 	-2.03546 17.3416 	2.31116 	-1.8636 17.283 	2.31947 	-1.92627 17.1307 	2.27949 	-1.89349 16.9539 	2.16595 	-1.8393 16.7107 	1.99307 	-1.69535 16.4013 	1.75971 	-1.46138 16.3486 	1.85064 	-1.50234 16.2489 	1.88441 	-1.50688 16.0571 	1.80286 	-1.44027 15.5953 	1.69291 	-1.14103 15.094 	1.55539 	-0.808823 15.1731 	1.30001 	-1.00334 15.1764 	1.08233 	-1.13486 14.9506 	0.967193 	-1.0729 14.3871 	1.0937 	-0.752696 13.8149 	1.23545 	-0.424824 13.8623 	0.64972 	-0.655023 13.9051 	0.0560589 	-0.881785 13.6139 	-0.175146 	-0.854291 13.0579 	-0.0913163 	-0.737363 12.482 	0.0104169 	-0.607212 12.3463 	-0.631562 	-0.80425 12.2015 	-1.23488 	-0.977177 11.8949 	-1.53718 	-0.937758 11.4317 	-1.59417 	-0.766566 10.8246 	-1.5071 	-0.500047 10.7698 	-2.47301 	-0.957356 8.43307 	-1.96396 	-0.758538 5.74499 	-1.22753 	-0.459997 3.91117 	-0.730748 	-0.260635 3.3352 	-0.669037 	-0.227246 2.71323 	-0.600505 	-0.186867 2.10843 	-0.539632 	-0.147808 1.53275 	-0.491679 	-0.110938 1.19516 	-0.639345 	-0.0611962 1.60312 	-1.21784 	-0.0191296 1.79191 	-1.49154 	0.00138211 1.60294 	-1.33424 	0.00123635 1.41396 	-1.17694 	0.00109059 0 	0 	0