# vtk DataFile Version 2.0
track0
ASCII
DATASET POLYDATA
POINTS 19360 float
-1.001 -0.05 0.316889
-1.0008 -0.0500006 0.316891
-1.00059 -0.0500012 0.316892
-1.00039 -0.0500018 0.316893
-1.00019 -0.0500024 0.316894
-0.999982 -0.050003 0.316895
-0.987481 -0.0500398 0.316959
-0.97498 -0.0500785 0.317025
-0.962479 -0.050118 0.317091
-0.949978 -0.0501585 0.317157
-0.937477 -0.0501999 0.317224
-0.924975 -0.0502408 0.317291
-0.912473 -0.0502838 0.317358
-0.89997 -0.0503286 0.317426
-0.887468 -0.0503752 0.317495
-0.874966 -0.0504237 0.317564
-0.862462 -0.0504722 0.317633
-0.849959 -0.0505221 0.317703
-0.837455 -0.0505747 0.317773
-0.824951 -0.05063 0.317843
-0.812448 -0.0506879 0.317914
-0.79995 -0.0507477 0.317985
-0.787453 -0.0508111 0.318057
-0.774955 -0.0508784 0.318128
-0.762458 -0.0509495 0.3182
-0.749961 -0.0510244 0.318271
-0.737547 -0.0510999 0.318343
-0.725134 -0.0511774 0.318414
-0.712721 -0.0512603 0.318484
-0.700308 -0.0513487 0.318555
-0.687895 -0.0514426 0.318625
-0.681934 -0.0514902 0.318658
-0.675973 -0.0515396 0.318692
-0.670012 -0.0515911 0.318725
-0.664051 -0.0516445 0.318758
-0.65803 -0.0517006 0.31879
-0.651824 -0.0517604 0.318824
-0.645619 -0.0518224 0.318858
-0.639413 -0.0518866 0.318891
-0.633207 -0.0519529 0.318924
-0.627001 -0.0520202 0.318957
-0.61425 -0.0521596 0.319024
-0.601499 -0.0523049 0.319091
-0.588748 -0.0524655 0.319156
-0.575997 -0.0526416 0.31922
-0.563245 -0.0528333 0.319283
-0.550725 -0.0530331 0.319344
-0.538206 -0.0532548 0.319405
-0.525687 -0.0535029 0.319463
-0.513168 -0.0537778 0.319519
-0.500645 -0.0540798 0.319572
-0.488224 -0.0543974 0.319625
-0.475804 -0.0547592 0.31968
-0.463386 -0.0551785 0.319731
-0.45097 -0.0556562 0.319779
-0.438538 -0.0561949 0.319825
-0.432347 -0.056496 0.31985
-0.426157 -0.0568102 0.319878
-0.419968 -0.0571536 0.319906
-0.413781 -0.0575272 0.319933
-0.407583 -0.0579324 0.319959
-0.401362 -0.0583734 0.319982
-0.395145 -0.0588606 0.320009
-0.388933 -0.059402 0.320036
-0.382726 -0.0599981 0.320061
-0.376477 -0.060654 0.320086
-0.371928 -0.0611717 0.320106
-0.367386 -0.0617381 0.320129
-0.36285 -0.0623572 0.320154
-0.358323 -0.063038 0.32018
-0.357226 -0.0632166 0.320187
-0.354814 -0.0636167 0.320201
-0.352404 -0.0640304 0.320214
-0.349996 -0.0644576 0.320228
-0.347591 -0.0648982 0.32024
-0.345163 -0.065357 0.320253
-0.338842 -0.0665874 0.320287
-0.332545 -0.0679309 0.320316
-0.326278 -0.0694113 0.320342
-0.320045 -0.0710247 0.320361
-0.313555 -0.0728353 0.320368
-0.310349 -0.0737793 0.320365
-0.307142 -0.0747221 0.320362
-0.303938 -0.0756744 0.320356
-0.30074 -0.0766458 0.320348
-0.297521 -0.0776428 0.320336
-0.296777 -0.0778822 0.320333
-0.296034 -0.0781224 0.320329
-0.29529 -0.0783622 0.320325
-0.294546 -0.0786012 0.32032
-0.293801 -0.0788398 0.320315
-0.291443 -0.0795926 0.320298
-0.289084 -0.0803435 0.320278
-0.286724 -0.0810924 0.320255
-0.284364 -0.0818394 0.32023
-0.28201 -0.0825818 0.320203
-0.278827 -0.0835775 0.320165
-0.275632 -0.0845318 0.320119
-0.272425 -0.0854466 0.320067
-0.269209 -0.0863267 0.320008
-0.266105 -0.0871462 0.319948
-0.262998 -0.087939 0.319883
-0.259881 -0.0886908 0.319812
-0.256753 -0.089395 0.319736
-0.253612 -0.0900417 0.319658
-0.250591 -0.0906088 0.319578
-0.247521 -0.0910821 0.319495
-0.244444 -0.0915064 0.319409
-0.24136 -0.0918727 0.31932
-0.238269 -0.0921818 0.31923
-0.235284 -0.0924251 0.319141
-0.232057 -0.092616 0.319044
-0.228828 -0.0927723 0.318947
-0.225597 -0.0928857 0.318848
-0.222365 -0.0929553 0.318748
-0.219138 -0.0929794 0.318647
-0.215946 -0.0929521 0.318546
-0.212753 -0.0929013 0.318445
-0.209561 -0.0928237 0.318343
-0.20637 -0.0927211 0.318241
-0.203165 -0.0925921 0.318137
-0.20011 -0.0924472 0.318036
-0.197056 -0.0922973 0.317936
-0.194002 -0.0921392 0.317834
-0.190948 -0.0919726 0.317732
-0.187891 -0.0917957 0.31763
-0.184891 -0.0916088 0.317528
-0.181892 -0.0914046 0.317427
-0.178894 -0.0911862 0.317325
-0.175897 -0.0909531 0.317223
-0.172893 -0.0907043 0.317121
-0.169845 -0.0904472 0.317016
-0.166798 -0.0901768 0.316912
-0.163752 -0.0899061 0.316807
-0.160705 -0.0896352 0.316701
-0.157656 -0.0893637 0.316593
-0.154535 -0.0890864 0.31648
-0.151416 -0.0887922 0.316368
-0.148297 -0.088502 0.316256
-0.145177 -0.0882169 0.316142
-0.142057 -0.087937 0.316028
-0.138599 -0.0876433 0.315908
-0.135138 -0.0873751 0.315792
-0.131676 -0.0871226 0.315673
-0.128213 -0.0868865 0.315551
-0.12477 -0.0866736 0.315432
-0.121528 -0.0864814 0.315327
-0.118284 -0.0863399 0.315212
-0.11504 -0.086219 0.315086
-0.111795 -0.0861171 0.314951
-0.108572 -0.0860351 0.314806
-0.105316 -0.0859683 0.314644
-0.102062 -0.08593 0.314467
-0.0988078 -0.085905 0.314272
-0.0955548 -0.0858932 0.314061
-0.0922905 -0.0858958 0.313829
-0.0890752 -0.0859061 0.31357
-0.0858616 -0.085928 0.313291
-0.0826498 -0.0859547 0.312993
-0.0794397 -0.0859884 0.312678
-0.0777006 -0.0860105 0.312497
-0.077405 -0.0860146 0.312466
-0.0771095 -0.0860187 0.312434
-0.076814 -0.086023 0.312402
-0.0765185 -0.0860273 0.31237
-0.076223 -0.0860318 0.312338
-0.0734269 -0.0860741 0.312031
-0.0706325 -0.0861259 0.311711
-0.0678399 -0.0861881 0.311378
-0.0650492 -0.0862608 0.31103
-0.0622475 -0.0863423 0.310665
-0.0593122 -0.0864464 0.310259
-0.0563792 -0.0865661 0.30984
-0.0534489 -0.0867164 0.309412
-0.0505221 -0.0868964 0.308972
-0.0475491 -0.0871109 0.308512
-0.0443052 -0.0874142 0.307985
-0.0410689 -0.0877559 0.307436
-0.0378449 -0.08817 0.306865
-0.0346391 -0.088681 0.306271
-0.031277 -0.0893463 0.305543
-0.0289133 -0.0899318 0.304914
-0.0265875 -0.0905825 0.304212
-0.024264 -0.09125 0.303519
-0.021923 -0.091914 0.302883
-0.0207702 -0.0922349 0.30262
-0.018911 -0.0927463 0.302257
-0.0170634 -0.0933308 0.301948
-0.0152277 -0.0939495 0.301634
-0.0134184 -0.0946373 0.301312
-0.0113713 -0.0956485 0.300908
-1.001 -0.05 0.369521
-1.0008 -0.0500006 0.369522
-1.00059 -0.0500012 0.369524
-1.00039 -0.0500018 0.369525
-1.00019 -0.0500023 0.369526
-0.999983 -0.0500029 0.369527
-0.987482 -0.050039 0.369604
-0.974981 -0.050078 0.36968
-0.96248 -0.0501179 0.369758
-0.949978 -0.0501589 0.369836
-0.937477 -0.0502008 0.369915
-0.924975 -0.0502409 0.369995
-0.912473 -0.0502835 0.370076
-0.899971 -0.0503278 0.370158
-0.887469 -0.0503739 0.37024
-0.874967 -0.0504218 0.370324
-0.862469 -0.0504695 0.370408
-0.849972 -0.0505197 0.370493
-0.837474 -0.0505724 0.370579
-0.824977 -0.0506278 0.370666
-0.812479 -0.0506858 0.370754
-0.800059 -0.050744 0.370842
-0.787639 -0.0508053 0.370931
-0.775218 -0.0508703 0.37102
-0.762798 -0.050939 0.37111
-0.750377 -0.0510113 0.371201
-0.738235 -0.0510835 0.371291
-0.726092 -0.0511596 0.371381
-0.713949 -0.0512409 0.371471
-0.701806 -0.0513273 0.371562
-0.689663 -0.051419 0.371655
-0.676973 -0.0515173 0.371751
-0.664282 -0.0516213 0.371848
-0.651591 -0.0517332 0.371947
-0.638901 -0.0518531 0.372047
-0.62621 -0.051981 0.372148
-0.613705 -0.0521138 0.372249
-0.601201 -0.0522587 0.372351
-0.588696 -0.0524172 0.372454
-0.576192 -0.0525894 0.37256
-0.563687 -0.0527755 0.372666
-0.551184 -0.0529678 0.372775
-0.538681 -0.0531719 0.372888
-0.526178 -0.0534005 0.373005
-0.513676 -0.053654 0.373126
-0.50117 -0.0539327 0.373251
-0.488719 -0.0542341 0.373378
-0.476268 -0.0545839 0.373514
-0.46382 -0.0549855 0.37366
-0.451373 -0.0554398 0.373814
-0.438911 -0.0559484 0.373978
-0.43269 -0.0562268 0.374068
-0.42647 -0.056521 0.374163
-0.420252 -0.0568406 0.374263
-0.414035 -0.0571862 0.374367
-0.407807 -0.0575589 0.374476
-0.40156 -0.0579603 0.37459
-0.395316 -0.0584058 0.374711
-0.389075 -0.0588966 0.374839
-0.382838 -0.0594332 0.374974
-0.376566 -0.0600198 0.375117
-0.375484 -0.0601286 0.375144
-0.374402 -0.0602397 0.375171
-0.373321 -0.0603529 0.375199
-0.37224 -0.0604689 0.375227
-0.371389 -0.0605632 0.37525
-0.366562 -0.0611119 0.375381
-0.36174 -0.0617057 0.375516
-0.356923 -0.0623442 0.375655
-0.352114 -0.0630273 0.375798
-0.350368 -0.0632923 0.375852
-0.349333 -0.0634536 0.375884
-0.348297 -0.0636169 0.375916
-0.347262 -0.0637823 0.375948
-0.346228 -0.0639499 0.375981
-0.34519 -0.0641201 0.376014
-0.338825 -0.0651763 0.376218
-0.332482 -0.0663606 0.376423
-0.326166 -0.0676779 0.376631
-0.319878 -0.0691251 0.376841
-0.313297 -0.0707808 0.377063
-0.310108 -0.0716259 0.377158
-0.306922 -0.0724825 0.377245
-0.303739 -0.073354 0.377324
-0.30056 -0.0742399 0.377397
-0.29735 -0.0751613 0.377464
-0.294639 -0.0759632 0.377519
-0.29193 -0.0767762 0.377563
-0.289223 -0.0775942 0.377598
-0.286518 -0.0784191 0.377624
-0.28408 -0.079169 0.377639
-0.283572 -0.0793264 0.37764
-0.283065 -0.0794839 0.377642
-0.282557 -0.0796415 0.377643
-0.28205 -0.0797993 0.377644
-0.281542 -0.0799573 0.377645
-0.278202 -0.0809971 0.377648
-0.274859 -0.0820224 0.377634
-0.271511 -0.0830344 0.377603
-0.26816 -0.0840342 0.377556
-0.26484 -0.0850041 0.377495
-0.261668 -0.0859236 0.37742
-0.258478 -0.0867777 0.377328
-0.255276 -0.087585 0.377217
-0.252064 -0.0883466 0.377089
-0.248946 -0.0890217 0.376943
-0.245854 -0.0896662 0.376782
-0.242752 -0.0902525 0.376603
-0.239641 -0.0907804 0.376408
-0.236522 -0.0912627 0.3762
-0.233449 -0.0916919 0.375983
-0.231008 -0.0919742 0.375798
-0.228567 -0.0922394 0.375608
-0.226122 -0.0924709 0.375415
-0.223674 -0.0926678 0.375217
-0.221541 -0.0928088 0.375042
-0.221063 -0.0928345 0.375002
-0.220584 -0.0928588 0.374962
-0.220105 -0.0928818 0.374922
-0.219626 -0.0929035 0.374881
-0.219148 -0.0929239 0.374841
-0.216025 -0.0930491 0.374576
-0.212901 -0.0931384 0.374312
-0.209775 -0.0931921 0.37405
-0.206649 -0.093209 0.37379
-0.203545 -0.0931879 0.373534
-0.200423 -0.0931362 0.373282
-0.197302 -0.0930572 0.373031
-0.194181 -0.0929556 0.372781
-0.191061 -0.0928305 0.372534
-0.187941 -0.0926814 0.37229
-0.184862 -0.0925254 0.372052
-0.181784 -0.0923443 0.371812
-0.178708 -0.0921429 0.371573
-0.175633 -0.0919207 0.371334
-0.172547 -0.091676 0.371094
-0.169467 -0.0914312 0.370866
-0.166389 -0.0911672 0.370628
-0.163311 -0.0908969 0.370392
-0.160234 -0.0906201 0.370156
-0.157146 -0.0903401 0.369921
-0.154056 -0.090063 0.369694
-0.150969 -0.0897579 0.369461
[...]
POINT_DATA 19360
 FIELD attributes 2
p 1 19360 float
18.3639 18.3701 18.3762 18.3824 18.3885 18.3947 18.6636 18.9274 19.1911 19.4549 19.7663 20.1541 20.5389 20.9237 21.3085 21.7032 22.156 22.595 23.034 23.473 23.9116 24.4332 24.9506 25.4679 25.9852 26.5182 27.1759 27.8032 28.4305 29.0578 29.6844 30.0703 30.4526 30.8348 31.2169 31.603 32.0018 32.4006 32.7994 33.2207 33.6459 34.7803 35.8026 36.8245 37.846 38.8861 40.3868 41.7653 43.143 44.5199 45.904 48.2031 50.2218 52.2374 54.2484 57.1085 58.3764 59.6335 60.9204 62.2005 63.7044 65.5923 66.834 68.0537 69.2476 70.5042 71.4795 71.8676 72.4854 72.7371 72.7712 72.8329 72.8857 72.9296 72.9647 73.0078 71.5974 71.1478 68.1117 62.4313 55.7568 52.1651 48.2343 44.1164 40.1354 35.2906 33.7403 32.1539 30.558 28.9621 27.3641 22.977 18.5137 13.8691 9.2596 4.84007 -1.308 -7.80362 -16.0179 -23.829 -31.3731 -38.7576 -44.6651 -48.6056 -52.8055 -57.9979 -60.6118 -62.4509 -64.2243 -66.132 -68.1289 -65.494 -62.5862 -59.8387 -57.796 -54.2547 -47.3466 -41.5225 -36.082 -30.6612 -24.9834 -19.1171 -14.9391 -10.7596 -6.49692 -3.94723 -0.348182 2.13925 4.61726 7.09441 8.4502 11.9212 14.3538 16.7863 19.2505 21.0518 24.6253 27.412 30.2921 33.173 37.0863 40.5259 43.8743 47.2172 50.9557 55.2614 57.4093 59.6379 62.0353 64.4195 66.7209 68.5417 70.1537 71.7511 72.9613 73.5438 74.4016 75.7218 77.3658 78.9986 79.8774 80.0321 80.1868 80.3414 80.4959 80.6464 83.2846 85.8716 88.4593 91.5902 94.7882 100.135 104.782 108.525 112.246 115.105 121.791 126.885 130.95 133.457 134.059 138.494 140.208 140.94 141.726 142.15 143.891 145.766 147.636 149.497 145.492
18.1886 18.1947 18.2008 18.2068 18.2129 18.219 18.4733 18.7648 19.0564 19.3403 19.6945 20.0885 20.4744 20.8607 21.2469 21.6364 22.0915 22.5323 22.973 23.4136 23.8556 24.3902 24.9089 25.4278 25.9466 26.4625 27.1137 27.7421 28.3703 28.9985 29.6297 30.4705 31.2614 32.0522 32.8429 33.6404 34.6902 35.707 36.7236 37.74 38.8294 40.3687 41.706 43.0421 44.3771 45.709 47.7167 49.628 51.5363 53.4416 56.2709 57.6934 58.9174 60.123 61.3225 62.5434 63.8889 65.1142 66.3276 67.5287 69.2088 69.7041 70.2197 70.6067 70.7709 70.898 71.166 71.3891 71.5742 71.8322 71.9826 72.0567 72.1298 72.2016 72.2723 72.3384 71.388 70.4653 69.4725 68.4113 63.7972 61.3848 58.544 55.6883 52.6343 49.2602 44.9937 40.7951 36.6259 32.4501 28.6785 27.944 27.2093 26.4745 25.7753 25.2359 19.5532 12.6201 4.88137 -0.773872 -7.68892 -12.632 -17.7707 -23.0209 -31.4926 -37.8741 -42.9368 -45.9216 -47.981 -50.2275 -54.52 -53.2341 -52.6794 -52.2642 -51.9733 -51.8295 -51.8314 -51.8382 -51.8497 -51.866 -51.3899 -46.8959 -42.8075 -38.7907 -34.8485 -30.7709 -25.3943 -21.0621 -16.7349 -12.4129 -9.08575 -5.67979 -2.85107 0.0175176 2.88448 4.61713 7.55987 9.98737 12.4129 15.0026 17.1723 20.1416 22.7122 25.3179 27.9225 30.5345 34.0951 37.3669 40.6803 44.5507 50.0143 53.0986 56.6802 60.3668 64.7504 70.8201 74.4396 77.9438 80.9655 83.5451 85.6754 86.5271 87.6881 89.0005 90.483 91.4527 92.2041 93.8595 95.5204 97.2093 99.1267 102.581 105.303 107.895 110.386 111.869 116.976 116.387 115.34 114.547 113.951 113.951 113.951 113.951 113.957 113.971 114.236 114.495 114.746 114.985 115.367 115.195 115.024 114.852 114.484 113.22 110.745 108.096 90.3545 92.3196 94.0285 89.0574 88.4521 90.9235 92.6415 79.9957 66.6309 52.9813 60.3171 69.0984 72.6864 75.4434 76.4384 75.8101 75.2607 76.4482 76.2928 74.9946 73.458 71.9558 71.6607 71.3647 71.0681 70.8131 70.565 62.7257 55.5465 49.8878 46.7431 46.7066 40.7172 41.2985 43.0344 45.7884 54.3167 51.8219 52.5255 54.0675 55.6215 57.6971 58.4407 59.1783 60.0894 60.6525 58.9992 59.1049 58.4039 58.4158 58.4155 59.0748 62.2438 64.6368 67.037 69.2934 70.7823 71.4943 71.831 71.9659 72.0967 72.2336 73.6064 74.9984 76.8871 77.9736 78.5517 81.5959 83.3642 85.0971 85.9364 85.0992 84.4371 83.7747 83.686 83.7345 83.7739 84.2345 84.2247 84.1772 83.338 81.6364 81.161 79.8949 80.4183 80.8543 81.3138 81.3236 81.3335 81.3426 81.3489 81.3551 81.9895 82.5247 82.8358 82.9431 82.7313
18.1014 18.1076 18.1138 18.1199 18.1261 18.1322 18.3944 18.6865 18.9523 19.2171 19.5649 19.9651 20.3527 20.7403 21.1262 21.5136 21.9679 22.4068 22.8464 23.286 23.723 24.2523 24.7687 25.2851 25.7958 26.3139 26.9626 27.5971 28.2146 28.832 29.4722 30.2918 31.0691 31.8463 32.6232 33.4174 34.4877 35.4558 36.4235 37.3911 38.3711 39.8322 41.0663 42.2995 43.5316 44.8591 46.9486 48.6162 50.2693 51.92 54.4524 55.3642 56.418 57.582 58.7436 59.9299 61.6599 62.6752 63.6813 64.7305 66.1127 67.3983 68.1673 68.9117 69.6316 70.6446 70.6889 70.5926 70.4881 70.3756 70.2937 70.182 70.0488 69.8943 69.8831 69.7023 66.7265 66.5919 63.06 57.9083 51.2354 48.4046 45.1579 41.8646 38.4845 34.3047 33.994 33.605 33.1628 32.7206 32.2738 27.9701 24.2473 20.2378 16.1626 11.445 6.66634 0.369464 -4.25722 -7.37968 -11.7691 -16.021 -18.9106 -21.8859 -24.4542 -29.6359 -26.9079 -27.0676 -27.706 -28.4473 -29.6131 -28.8644 -28.6841 -28.5109 -28.3447 -28.0103 -27.7125 -26.2508 -24.6857 -23.1478 -21.7136 -21.1467 -20.5515 -19.9571 -19.3633 -19.1409 -16.372 -13.6325 -10.9395 -8.82971 -7.44243 -1.96068 1.51769 4.74878 7.97846 9.98001 14.4592 16.6661 18.8626 21.0486 23.4709 24.4783 25.2918 26.1049 26.8835 27.614 29.4823 31.3494 33.2151 35.0794 36.8603 40.0608 42.8657 45.6648 48.6249 51.9352 55.176 58.3474 61.325 64.3842 67.5193 70.4106 73.3891 76.5351 81.3624 86.3732 88.693 91.4399 95.1315 100.442 105.774 108.971 112.134 116.311 120.226 124.294 129.561 134.536 138.345 142.251 146.665 152.607 153.011 152.633 152.494 153.117 153.678 154.221 154.729 152.912 153.873 154.064 153.574 153.084 143.001
17.1874 17.1924 17.1982 17.204 17.2098 17.2155 17.4733 17.7336 17.9939 18.2542 18.515 18.5437 18.5724 18.6011 18.6298 18.6584 19.0341 19.3996 19.7651 20.1306 20.4951 20.914 21.3314 21.7487 22.166 22.5882 23.0913 23.5865 24.0817 24.5768 25.0682 25.6582 26.2448 26.8314 27.4179 27.9963 28.7092 29.4064 30.1034 30.8004 31.4994 32.3482 33.182 34.0156 34.8484 35.6664 36.7088 37.7047 38.7007 39.6964 40.7086 41.9404 43.1246 44.3084 45.4966 46.6693 48.1912 49.5951 50.9695 52.3432 53.7891 55.43 56.943 58.4537 60.0806 61.6858 63.6926 65.5475 66.957 68.3922 69.9686 70.4217 70.843 71.2627 71.6807 71.9933 72.1227 72.2405 72.354 72.4672 72.5603 72.6442 72.9875 73.3265 73.6612 73.9363 73.6478 73.5273 73.4315 73.3349 73.1012 72.548 71.7702 70.9387 70.0985 68.9436 67.6543 65.9308 64.5241 62.3954 60.7659 59.1651 56.8209 54.4591 51.0202 48.5994 47.6313 45.7754 43.0844 41.1568 39.2558 39.1319 38.7837 38.4362 38.018 37.4356 37.3174 37.2234 37.1559 37.1088 37.082 37.4429 37.658 37.8443 38.0624 38.1878 38.8259 39.506 40.2327 40.9153 41.405 42.543 43.6767 44.8062 45.8863 47.0096 48.8241 50.5649 52.4295 54.2846 56.0735 58.6428 61.1265 63.5979 65.785 67.0687 67.3745 67.6797 67.9845 68.2886 68.5803 71.3715 74.1367 77.3932 80.7731 83.0711 86.9175 90.414 93.2047 95.6602 96.0019 96.1625 96.0405 95.7625 93.5261 92.1966 91.5883 90.9652 90.3274 89.6752 88.6384 88.8541 89.0675 89.0457 88.8238 88.5953 89.1553 87.2708 81.8799 76.5127 71.5054 65.9842 60.4041 54.7675 47.3476 39.9691 39.2987 38.6272 37.8782 36.8466 35.8028 21.5217 6.13049 -9.79188 -24.3134 -29.0445 -33.7825 -38.5274 -44.0012 -49.7695 -61.4502 -61.7836 -62.5144 -63.6272 -64.7799 -66.4382 -68.1182 -69.8198 -71.543 -73.2393 -65.4529 -61.1904 -60.424 -60.2738 -60.9073 -58.7715 -48.0775 -44.4556 -41.5605 -38.1667 -38.0032 -37.9431 -37.8831 -37.8232 -37.7636 -33.6306 -29.4985 -25.3668 -21.9312 -19.7913 -18.4689 -18.1445 -17.9055 -17.6693 -17.4469 -16.801 -16.5459 -16.308 -16.1034 -15.98 -15.4859 -15.0566 -15.9235 -18.676 -21.5329 -19.8048 -19.1267 -19.3975 -19.7196 -20.0264 -20.0269 -20.0277 -20.0288 -20.0936 -20.2003 -19.3126 -20.2513 -21.3546 -22.4764 -23.5499 -24.0208 -23.5624 -22.9424 -22.3373 -22.7054 -22.9264 -23.3142 -23.8285 -24.4578 -24.9691 -24.8758 -24.7848 -24.6961 -24.1406 -23.5656 -23.2 -22.8361 -21.1576 -18.5651 -15.9453 -15.7842 -15.6243 -14.7614 -13.858 -12.917 -9.97472 -7.19283 -5.03124 -1.44078 1.62103 2.32255 2.96334 3.59528 4.22608 4.87222 7.60026 10.3008 12.9712 15.5088 18.6339 19.1975 19.7585 20.317 20.719 21.0205 24.1199 27.0349 29.8864 31.714 32.9444 34.761 36.5274 37.5423 38.2746 38.8868 40.6521 41.6191 42.285 42.551 43.0319 43.4968 43.0036 43.2314 43.4218 43.4316 43.8722 44.3177 44.7678 45.0815 45.0262 45.1068 45.16 45.1541 45.1478 45.1411 45.0207 44.8865 44.7407 44.5281 44.338 44.4054 44.4717 43.6857 40.4537 41.4461 42.0936 42.7589 43.4395 44.1335 43.9804 44.5318 44.6983 44.8205 44.9434 45.1249 45.846 46.5587 47.2622 47.1998 46.797 48.3377 49.9052 50.34 49.6739 49.164 49.6832 50.094 50.1509 50.2015 50.2155 50.864 51.5153 51.8609 51.7733 51.7787 52.8602 53.8998 54.6861 54.6962 54.7623 55.1588 55.5434 55.6259 55.2757 54.1002
16.9671 16.9719 16.9768 16.9816 16.9864 16.9913 17.248 17.4954 17.7427 17.99 18.2915 18.6624 19.0192 19.3759 19.7326 20.0984 20.5225 20.9379 21.3533 21.7687 22.1839 22.4312 22.6777 22.9242 23.1706 23.3926 23.6338 23.875 24.1162 24.362 24.6075 25.1916 25.7633 26.335 26.9066 27.4779 28.1625 28.846 29.5294 30.2128 30.9067 31.7518 32.5725 33.3931 34.2135 35.0348 36.0397 37.0331 38.0262 39.0192 40.0223 41.2922 42.5005 43.7085 44.9161 46.1397 47.7046 49.1571 50.6056 52.0534 53.5335 55.5946 57.3267 59.058 60.7885 62.5911 64.8249 66.7735 68.7171 70.8168 73.3862 75.1348 76.4519 78.0033 79.5588 80.9205 81.8126 82.702 83.5888 84.4729 85.2796 86.293 87.3769 88.1394 88.4911 89.1916 88.9085 88.2833 87.7941 86.7192 85.6494 84.3189 82.6363 80.0274 75.7797 70.7601 68.637 66.6365 64.9455 62.7745 59.9111 58.0531 54.7433 51.5759 48.408 44.2258 44.0446 43.8634 43.6822 43.501 43.3408 40.088 36.7519 33.3992 30.0305 27.2542 25.0823 23.1324 21.1008 19.0475 17.6195 17.468 17.3318 17.1804 16.8769 16.5668 16.7817 16.8948 17.0321 17.253 17.482 17.5195 17.5567 17.5938 17.6306 17.6661 17.9259 18.1684 18.4055 18.6367 18.8227 19.2526 19.6836 20.0707 20.3937 20.7319 21.3423 21.8877 22.5453 23.2933 23.9448 24.906 26.0891 26.8442 27.4306 28.1688 29.5346 30.5391 31.4078 32.4257 33.1997 35.4886 36.6103 37.6245 38.5562 39.3339 40.4865 41.1355 41.769 42.387 42.8176 43.9208 44.9503 45.7033 45.96 45.7587 48.9963 51.2933 53.2517 52.467 50.6831 52.6428 53.7929 52.7043 51.4114 48.1344 49.7926 49.5237 48.0558 46.5796 45.298 39.6945 32.812 20.4651 4.9535 -5.99071 -7.69166 -9.40172 -10.7369 -11.4347 -12.1651 -13.4323 -17.3831 -21.4226 -24.8598 -27.9178 -28.4619 -29.0942 -29.9041 -30.698 -31.4513 -29.2898 -29.0303 -30.5176 -32.011 -33.3758 -36.7921 -40.3053 -43.2765 -44.6875 -46.0552 -45.1697 -45.4451 -45.868 -46.291 -47.8287 -47.7142 -47.6564 -47.7241 -47.8038 -52.1939
16.5325 16.5357 16.5388 16.542 16.5451 16.5483 16.7667 17.0297 17.2926 17.5463 17.8829 18.2344 18.5875 18.9369 19.2862 19.6516 20.0747 20.4782 20.8815 21.2849 21.6915 22.1744 22.6424 23.1104 23.5783 24.0491 24.621 25.178 25.735 26.2918 26.8594 27.5468 28.2165 28.8861 29.5556 30.2263 31.0566 31.8687 32.6807 33.4925 34.32 35.3442 36.3431 37.3417 38.3401 39.3354 40.4606 41.5722 42.6836 43.7947 44.7748 44.9538 45.1329 45.3119 45.491 45.6676 47.3079 48.894 50.4795 52.0646 53.6441 55.7662 57.8232 59.8796 61.9354 63.974 67.0372 69.7612 72.4778 75.1911 77.8454 82.299 86.3256 90.3366 94.331 100.507 100.785 101.063 101.34 101.617 101.875 104.546 106.978 109.369 111.735 114.01 118.567 122.944 125.264 127.393 131.702 133.498 134.728 135.296 135.99 136.476 137.34 136.65 135.653 134.871 134.469 134.135 133.771 133.087 131.492 128.822 128.09 127.354 126.384 125.361 124.304 119.917 114.2 103.652 92.8297 80.757 80.5506 80.3438 79.4139 78.2843 77.1598 56.6031 30.7418 4.74882 -7.87011 -21.9011 -49.6072 -52.865 -56.2642 -49.9778 -41.0259 -42.1986 -43.3823 -44.96 -48.9354 -50.6467 -44.501 -38.6176 -32.8925 -27.3335 -24.552 -19.0079 -15.0812 -12.7299 -11.8512 -9.45364 -6.49253 -4.81018 -3.96917 -3.3473 -3.37655 -2.70014 -2.18789 -1.88633 -1.58188 -1.14573 -1.54133 -1.15036 -0.751413 -0.304466 1.41592 0.83822 1.2204 1.57475 1.87028 2.45201 1.39832 1.30318 1.15873 0.985899 2.0872 -0.814694 -1.38082 -2.00216 -2.58788 -2.46797 -4.26072 -8.43948 -10.7888 -13.1749 -16.7051 -17.449 -19.4319 -21.5765 -23.7612 -25.4297 -25.7178 -26.0075 -26.2987 -26.4507 -26.521 -26.8317 -26.9626 -27.0737 -27.4775 -27.9212 -29.2586 -30.891 -32.7562 -34.9689 -35.8235 -36.3905 -36.9687 -37.558 -38.1585 -38.8811 -41.0475 -43.2948 -43.9251 -44.6403 -45.3361 -46.7131 -48.0164 -49.3822 -50.7736 -52.1323 -53.7289 -55.3414 -56.286 -56.341 -56.3028 -56.3864 -56.4961 -56.5369 -56.4433 -56.3425 -56.3767 -56.2949 -56.2308 -56.5071 -56.7694 -57.0556 -57.3482 -57.4227 -57.3629 -57.2996 -57.5354 -57.7741 -58.0643 -58.3759 -58.6763 -58.8796 -59.0583 -59.2654 -59.3472 -59.3779 -59.5232 -59.669 -59.5518 -59.3062 -59.0704 -59.3551 -59.4078 -59.3434 -59.6071 -60.0419 -60.5965 -61.1499 -61.3652 -61.2148 -61.0681 -61.6201 -62.1803 -62.7686 -63.3883 -64.0105 -65.7748 -66.4007 -70.1236 -71.9889 -72.5492 -73.0805 -73.6142 -73.0617 -72.1808 -71.3109 -70.1375 -68.976 -67.8234 -66.9827 -66.2822 -62.9201 -59.5508 -56.3375 -54.2918 -52.831 -48.1582 -43.5411 -40.5419 -41.4152 -42.2366 -41.1267 -40.1284 -40.0073 -39.9017 -40.6086 -41.5814 -41.2409 -40.7842 -40.3504 -39.5646 -39.5325 -39.5011 -39.4706 -39.4265 -39.0858 -38.9159 -38.7455 -38.7319 -38.7541 -38.7753 -38.5049 -38.2345 -37.9365 -37.5377 -37.1087 -36.6328 -36.1532 -35.6702 -35.055 -34.252 -32.4226 -30.223 -28.0546 -26.4099 -25.7289 -19.664 -18.6973 -18.259 -19.7884 -24.71 -24.6557 -24.6135 -24.58 -24.5532 -27.5048